 written on  4Aug2022 at 13:25:46 
           2
        1125
    4    2    2    2    2    2    2    2    2    2    2    2    4    2    4
    1    1    2    1    1    2    1    1    2    2    1    1    1    2    1
    1    1    2    1    1    2    2    1    1    2    1    1    2    1    1
    2    1    2    4    2    2    1    1    4    1    1    1    1    2    2
    1    1    1    1    1    2    1    1    1    1    1    2    1    1    1
    1    1    2    1    1    1    1    1    2    1    1    1    1    2    2
    1    1    1    1    2    1    1    1    1    2    1    1    1    2    2
    1    2    4    2    2    1    1    2    2    1    1    1    1    1    4
    1    1    1    1    1    1    1    2    1    1    1    1    1    1    1
    2    1    1    1    1    1    1    1    2    1    1    1    1    1    1
    1    2    1    1    1    1    1    1    1    2    1    1    1    1    1
    1    2    2    1    1    1    1    1    1    2    1    1    1    1    1
    2    2    1    1    1    2    2    1    2    4    2    2    2    1    1
    1    2    1    1    1    1    1    2    1    1    1    1    1    1    1
    4    1    1    1    1    1    1    1    1    1    2    1    1    1    1
    1    1    1    1    1    2    1    1    1    1    1    1    1    1    1
    2    1    1    1    1    1    1    1    1    1    2    1    1    1    1
    1    1    1    1    1    2    1    1    1    1    1    1    1    1    2
    2    1    1    1    1    1    1    1    2    2    1    1    1    1    1
    2    2    1    1    1    2    2    1    2    4    2    2    2    1    1
    1    2    1    1    1    1    1    2    1    1    1    1    1    1    1
    2    1    1    1    1    1    1    1    1    1    1    1    1    1    1
    1    1    1    1    1    1    1    1    1    1    1    1    1    1    1
    1    1    1    1    1    1    1    1    1    1    1    1    1    1    1
    1    1    1    1    1    2    1    1    1    1    1    1    1    1    1
    2    2    1    1    1    1    1    1    1    1    2    1    1    1    1
    1    1    2    1    1    1    1    2    1    1    2    2    2    2    1
    1    2    2    1    1    1    1    1    2    1    1    1    1    1    1
    1    2    1    1    1    1    1    1    1    1    1    1    1    1    1
    1    1    1    1    1    1    1    1    1    1    1    1    1    1    1
    1    1    1    1    1    1    1    1    1    1    1    2    1    1    1
    1    1    1    1    1    1    2    1    1    1    1    1    1    1    1
    1    1    1    1    1    1    1    1    1    1    1    2    2    1    1
    1    1    1    1    2    1    1    1    1    2    1    1    2    2    2
    2    1    1    2    1    1    1    1    2    2    1    1    1    1    1
    1    1    2    1    1    1    1    1    1    1    1    1    1    1    1
    1    1    1    1    1    1    1    1    1    1    1    1    1    1    1
    1    1    2    1    1    1    1    1    1    1    1    1    2    1    1
    1    1    1    1    1    1    1    1    1    1    1    1    1    1    1
    1    1    1    1    1    1    1    1    1    1    1    1    2    1    1
    1    1    1    1    1    2    2    1    1    1    1    2    1    1    2
    2    2    2    1    1    2    1    1    1    1    2    1    1    1    1
    1    1    2    2    1    1    1    1    1    1    1    1    1    1    1
    1    1    1    1    1    1    1    1    2    1    1    1    1    1    1
    1    1    1    2    1    1    1    1    1    1    1    1    1    1    1
    1    1    1    1    1    1    1    1    1    1    1    1    1    1    1
    1    1    1    1    1    1    1    1    1    1    1    1    1    2    1
    1    1    1    1    1    1    2    1    1    1    1    1    2    2    1
    1    2    2    2    2    1    1    2    1    1    1    1    2    1    1
    1    1    1    1    2    1    1    1    1    1    1    1    1    2    2
    1    1    1    1    1    1    1    1    1    2    1    1    1    1    1
    1    1    1    1    1    1    1    1    1    1    1    1    1    1    1
    1    1    1    1    1    1    1    1    1    1    1    1    1    1    1
    1    1    1    1    1    1    1    1    1    1    1    1    1    1    2
    1    1    1    1    1    1    1    2    1    1    1    1    1    2    1
    1    1    2    2    2    4    2    1    2    2    1    1    1    2    2
    1    1    1    1    1    2    2    1    1    1    1    1    1    1    2
    2    1    1    1    1    1    1    1    1    2    1    1    1    1    1
    1    1    1    1    2    1    1    1    1    1    1    1    1    1    2
    1    1    1    1    1    1    1    1    1    2    1    1    1    1    1
    1    1    1    1    2    1    1    1    1    1    1    1    1    1    4
    1    1    1    1    1    1    1    2    1    1    1    1    1    2    1
    1    1    2    2    2    4    2    1    2    2    1    1    1    2    2
    1    1    1    1    1    2    1    1    1    1    1    1    2    2    1
    1    1    1    1    1    2    1    1    1    1    1    1    1    2    1
    1    1    1    1    1    1    2    1    1    1    1    1    1    1    2
    1    1    1    1    1    1    1    2    1    1    1    1    1    1    1
    4    1    1    1    1    1    2    2    1    1    2    2    4    2    1
    2    2    1    1    1    2    1    1    1    1    2    1    1    1    1
    2    2    1    1    1    1    2    1    1    1    1    1    2    1    1
    1    1    1    2    1    1    1    1    1    2    1    1    1    1    1
    2    2    1    1    1    1    4    1    1    2    2    4    2    1    2
    1    1    2    1    1    2    1    1    2    2    1    1    2    1    1
    1    2    1    1    1    2    2    1    1    2    1    1    2    1    1
    4    2    4    2    2    2    2    2    2    2    2    2    2    2    4
   -7   -7  -10    1    1   -0.000002    0.000000
   -7   -7  -10    2    1    0.000000    0.000000
   -7   -7  -10    1    2    0.000000    0.000000
   -7   -7  -10    2    2   -0.000007    0.000000
   -7   -6   -9    1    1    0.000006    0.000000
   -7   -6   -9    2    1    0.000000    0.000000
   -7   -6   -9    1    2    0.000000    0.000000
   -7   -6   -9    2    2   -0.000004    0.000000
   -7   -5   -8    1    1    0.000009    0.000000
   -7   -5   -8    2    1   -0.000001    0.000000
   -7   -5   -8    1    2   -0.000001    0.000000
   -7   -5   -8    2    2    0.000007    0.000000
   -7   -4   -7    1    1    0.000003    0.000000
   -7   -4   -7    2    1    0.000006    0.000000
   -7   -4   -7    1    2    0.000006    0.000000
   -7   -4   -7    2    2   -0.000009    0.000000
   -7   -3   -6    1    1    0.000009    0.000000
   -7   -3   -6    2    1   -0.000005    0.000000
   -7   -3   -6    1    2   -0.000005    0.000000
   -7   -3   -6    2    2    0.000010    0.000000
   -7   -3   -5    1    1   -0.000007    0.000000
   -7   -3   -5    2    1    0.000000    0.000000
   -7   -3   -5    1    2    0.000000    0.000000
   -7   -3   -5    2    2   -0.000007    0.000000
   -7   -2   -5    1    1   -0.000013    0.000000
   -7   -2   -5    2    1    0.000022    0.000000
   -7   -2   -5    1    2    0.000022    0.000000
   -7   -2   -5    2    2   -0.000011    0.000000
   -7   -2   -4    1    1   -0.000007    0.000000
   -7   -2   -4    2    1    0.000000    0.000000
   -7   -2   -4    1    2    0.000000    0.000000
   -7   -2   -4    2    2   -0.000007    0.000000
   -7   -1   -4    1    1    0.000009    0.000000
   -7   -1   -4    2    1   -0.000005    0.000000
   -7   -1   -4    1    2   -0.000005    0.000000
   -7   -1   -4    2    2    0.000010    0.000000
   -7    0   -3    1    1    0.000003    0.000000
   -7    0   -3    2    1    0.000006    0.000000
   -7    0   -3    1    2    0.000006    0.000000
   -7    0   -3    2    2   -0.000009    0.000000
   -7    1   -2    1    1    0.000009    0.000000
   -7    1   -2    2    1   -0.000001    0.000000
   -7    1   -2    1    2   -0.000001    0.000000
   -7    1   -2    2    2    0.000007    0.000000
   -7    2   -1    1    1    0.000006    0.000000
   -7    2   -1    2    1    0.000000    0.000000
   -7    2   -1    1    2    0.000000    0.000000
   -7    2   -1    2    2   -0.000004    0.000000
   -7    3    0    1    1   -0.000002    0.000000
   -7    3    0    2    1    0.000000    0.000000
   -7    3    0    1    2    0.000000    0.000000
   -7    3    0    2    2   -0.000007    0.000000
   -6   -7   -9    1    1    0.000006    0.000000
   -6   -7   -9    2    1    0.000000    0.000000
   -6   -7   -9    1    2    0.000000    0.000000
   -6   -7   -9    2    2   -0.000004    0.000000
   -6   -6  -10    1    1    0.000017    0.000000
   -6   -6  -10    2    1    0.000000    0.000000
   -6   -6  -10    1    2    0.000000    0.000000
   -6   -6  -10    2    2    0.000050    0.000000
   -6   -6   -9    1    1   -0.000012    0.000000
   -6   -6   -9    2    1    0.000000    0.000000
   -6   -6   -9    1    2    0.000000    0.000000
   -6   -6   -9    2    2    0.000000    0.000000
   -6   -6   -8    1    1   -0.000004    0.000000
   -6   -6   -8    2    1    0.000000    0.000000
   -6   -6   -8    1    2    0.000000    0.000000
   -6   -6   -8    2    2    0.000007    0.000000
   -6   -5   -9    1    1    0.000005    0.000000
   -6   -5   -9    2    1    0.000007    0.000000
   -6   -5   -9    1    2    0.000007    0.000000
   -6   -5   -9    2    2   -0.000038    0.000000
   -6   -5   -8    1    1   -0.000002    0.000000
   -6   -5   -8    2    1   -0.000002    0.000000
   -6   -5   -8    1    2   -0.000002    0.000000
   -6   -5   -8    2    2   -0.000001    0.000000
   -6   -5   -7    1    1    0.000006    0.000000
   -6   -5   -7    2    1    0.000001    0.000000
   -6   -5   -7    1    2    0.000001    0.000000
   -6   -5   -7    2    2    0.000004    0.000000
   -6   -4   -8    1    1    0.000003    0.000000
   -6   -4   -8    2    1   -0.000014    0.000000
   -6   -4   -8    1    2   -0.000014    0.000000
   -6   -4   -8    2    2    0.000034    0.000000
   -6   -4   -7    1    1   -0.000001    0.000000
   -6   -4   -7    2    1   -0.000004    0.000000
   -6   -4   -7    1    2   -0.000004    0.000000
   -6   -4   -7    2    2   -0.000004    0.000000
   -6   -4   -6    1    1    0.000006    0.000000
   -6   -4   -6    2    1   -0.000002    0.000000
   -6   -4   -6    1    2   -0.000002    0.000000
   -6   -4   -6    2    2    0.000007    0.000000
   -6   -4   -5    1    1    0.000004    0.000000
   -6   -4   -5    2    1    0.000000    0.000000
   -6   -4   -5    1    2    0.000000    0.000000
   -6   -4   -5    2    2   -0.000001    0.000000
   -6   -3   -7    1    1    0.000000    0.000000
   -6   -3   -7    2    1    0.000011    0.000000
   -6   -3   -7    1    2    0.000011    0.000000
   -6   -3   -7    2    2   -0.000033    0.000000
   -6   -3   -6    1    1    0.000004    0.000000
   -6   -3   -6    2    1    0.000001    0.000000
   -6   -3   -6    1    2    0.000001    0.000000
   -6   -3   -6    2    2    0.000004    0.000000
   -6   -3   -5    1    1    0.000014    0.000000
   -6   -3   -5    2    1    0.000000    0.000000
   -6   -3   -5    1    2    0.000000    0.000000
   -6   -3   -5    2    2   -0.000002    0.000000
   -6   -3   -4    1    1   -0.000001    0.000000
   -6   -3   -4    2    1    0.000004    0.000000
   -6   -3   -4    1    2    0.000004    0.000000
   -6   -3   -4    2    2    0.000004    0.000000
   -6   -2   -6    1    1   -0.000006    0.000000
   -6   -2   -6    2    1   -0.000009    0.000000
   -6   -2   -6    1    2   -0.000009    0.000000
   -6   -2   -6    2    2    0.000005    0.000000
   -6   -2   -5    1    1    0.000010    0.000000
   -6   -2   -5    2    1   -0.000003    0.000000
   -6   -2   -5    1    2   -0.000003    0.000000
   -6   -2   -5    2    2    0.000002    0.000000
   -6   -2   -4    1    1    0.000008    0.000000
   -6   -2   -4    2    1   -0.000002    0.000000
   -6   -2   -4    1    2   -0.000002    0.000000
   -6   -2   -4    2    2   -0.000010    0.000000
   -6   -2   -3    1    1   -0.000001    0.000000
   -6   -2   -3    2    1    0.000004    0.000000
   -6   -2   -3    1    2    0.000004    0.000000
   -6   -2   -3    2    2    0.000004    0.000000
   -6   -1   -5    1    1   -0.000006    0.000000
   -6   -1   -5    2    1    0.000013    0.000000
   -6   -1   -5    1    2    0.000013    0.000000
   -6   -1   -5    2    2    0.000010    0.000000
   -6   -1   -4    1    1    0.000010    0.000000
   -6   -1   -4    2    1   -0.000003    0.000000
   -6   -1   -4    1    2   -0.000003    0.000000
   -6   -1   -4    2    2    0.000002    0.000000
   -6   -1   -3    1    1    0.000014    0.000000
   -6   -1   -3    2    1    0.000000    0.000000
   -6   -1   -3    1    2    0.000000    0.000000
   -6   -1   -3    2    2   -0.000002    0.000000
   -6   -1   -2    1    1    0.000004    0.000000
   -6   -1   -2    2    1    0.000000    0.000000
   -6   -1   -2    1    2    0.000000    0.000000
   -6   -1   -2    2    2   -0.000001    0.000000
   -6    0   -4    1    1   -0.000006    0.000000
   -6    0   -4    2    1   -0.000009    0.000000
   -6    0   -4    1    2   -0.000009    0.000000
   -6    0   -4    2    2    0.000005    0.000000
   -6    0   -3    1    1    0.000004    0.000000
   -6    0   -3    2    1    0.000001    0.000000
   -6    0   -3    1    2    0.000001    0.000000
   -6    0   -3    2    2    0.000004    0.000000
   -6    0   -2    1    1    0.000006    0.000000
   -6    0   -2    2    1   -0.000002    0.000000
   -6    0   -2    1    2   -0.000002    0.000000
   -6    0   -2    2    2    0.000007    0.000000
   -6    1   -3    1    1    0.000000    0.000000
   -6    1   -3    2    1    0.000011    0.000000
   -6    1   -3    1    2    0.000011    0.000000
   -6    1   -3    2    2   -0.000033    0.000000
   -6    1   -2    1    1   -0.000001    0.000000
   -6    1   -2    2    1   -0.000004    0.000000
   -6    1   -2    1    2   -0.000004    0.000000
   -6    1   -2    2    2   -0.000004    0.000000
   -6    1   -1    1    1    0.000006    0.000000
   -6    1   -1    2    1    0.000001    0.000000
   -6    1   -1    1    2    0.000001    0.000000
   -6    1   -1    2    2    0.000004    0.000000
   -6    2   -2    1    1    0.000003    0.000000
   -6    2   -2    2    1   -0.000014    0.000000
   -6    2   -2    1    2   -0.000014    0.000000
   -6    2   -2    2    2    0.000034    0.000000
   -6    2   -1    1    1   -0.000002    0.000000
   -6    2   -1    2    1   -0.000002    0.000000
   -6    2   -1    1    2   -0.000002    0.000000
   -6    2   -1    2    2   -0.000001    0.000000
   -6    2    0    1    1   -0.000004    0.000000
   -6    2    0    2    1    0.000000    0.000000
   -6    2    0    1    2    0.000000    0.000000
   -6    2    0    2    2    0.000007    0.000000
   -6    3   -1    1    1    0.000005    0.000000
   -6    3   -1    2    1    0.000007    0.000000
   -6    3   -1    1    2    0.000007    0.000000
   -6    3   -1    2    2   -0.000038    0.000000
   -6    3    0    1    1   -0.000012    0.000000
   -6    3    0    2    1    0.000000    0.000000
   -6    3    0    1    2    0.000000    0.000000
   -6    3    0    2    2    0.000000    0.000000
   -6    3    1    1    1    0.000006    0.000000
   -6    3    1    2    1    0.000000    0.000000
   -6    3    1    1    2    0.000000    0.000000
   -6    3    1    2    2   -0.000004    0.000000
   -6    4    0    1    1    0.000017    0.000000
   -6    4    0    2    1    0.000000    0.000000
   -6    4    0    1    2    0.000000    0.000000
   -6    4    0    2    2    0.000050    0.000000
   -5   -7   -8    1    1    0.000009    0.000000
   -5   -7   -8    2    1    0.000001    0.000000
   -5   -7   -8    1    2    0.000001    0.000000
   -5   -7   -8    2    2    0.000007    0.000000
   -5   -6   -9    1    1    0.000005    0.000000
   -5   -6   -9    2    1   -0.000007    0.000000
   -5   -6   -9    1    2   -0.000007    0.000000
   -5   -6   -9    2    2   -0.000038    0.000000
   -5   -6   -8    1    1   -0.000002    0.000000
   -5   -6   -8    2    1    0.000002    0.000000
   -5   -6   -8    1    2    0.000002    0.000000
   -5   -6   -8    2    2   -0.000001    0.000000
   -5   -6   -7    1    1    0.000006    0.000000
   -5   -6   -7    2    1   -0.000001    0.000000
   -5   -6   -7    1    2   -0.000001    0.000000
   -5   -6   -7    2    2    0.000004    0.000000
   -5   -5  -10    1    1   -0.000023    0.000000
   -5   -5  -10    2    1    0.000000    0.000000
   -5   -5  -10    1    2    0.000000    0.000000
   -5   -5  -10    2    2    0.000082    0.000000
   -5   -5   -9    1    1   -0.000002    0.000000
   -5   -5   -9    2    1    0.000000    0.000000
   -5   -5   -9    1    2    0.000000    0.000000
   -5   -5   -9    2    2   -0.000004    0.000000
   -5   -5   -8    1    1    0.000000    0.000000
   -5   -5   -8    2    1    0.000000    0.000000
   -5   -5   -8    1    2    0.000000    0.000000
   -5   -5   -8    2    2    0.000031    0.000000
   -5   -5   -7    1    1    0.000003    0.000000
   -5   -5   -7    2    1    0.000000    0.000000
   -5   -5   -7    1    2    0.000000    0.000000
   -5   -5   -7    2    2    0.000006    0.000000
   -5   -5   -6    1    1   -0.000003    0.000000
   -5   -5   -6    2    1    0.000000    0.000000
   -5   -5   -6    1    2    0.000000    0.000000
   -5   -5   -6    2    2    0.000000    0.000000
   -5   -5   -5    1    1    0.000000    0.000000
   -5   -5   -5    2    1    0.000000    0.000000
   -5   -5   -5    1    2    0.000000    0.000000
   -5   -5   -5    2    2    0.000019    0.000000
   -5   -4   -9    1    1   -0.000001    0.000000
   -5   -4   -9    2    1   -0.000005    0.000000
   -5   -4   -9    1    2   -0.000005    0.000000
   -5   -4   -9    2    2   -0.000075    0.000000
   -5   -4   -8    1    1    0.000001    0.000000
   -5   -4   -8    2    1   -0.000001    0.000000
   -5   -4   -8    1    2   -0.000001    0.000000
   -5   -4   -8    2    2    0.000004    0.000000
   -5   -4   -7    1    1   -0.000004    0.000000
   -5   -4   -7    2    1    0.000003    0.000000
   -5   -4   -7    1    2    0.000003    0.000000
   -5   -4   -7    2    2   -0.000024    0.000000
   -5   -4   -6    1    1    0.000000    0.000000
   -5   -4   -6    2    1    0.000003    0.000000
   -5   -4   -6    1    2    0.000003    0.000000
   -5   -4   -6    2    2    0.000003    0.000000
   -5   -4   -5    1    1   -0.000004    0.000000
   -5   -4   -5    2    1   -0.000001    0.000000
   -5   -4   -5    1    2   -0.000001    0.000000
   -5   -4   -5    2    2    0.000003    0.000000
   -5   -4   -4    1    1   -0.000002    0.000000
   -5   -4   -4    2    1    0.000001    0.000000
   -5   -4   -4    1    2    0.000001    0.000000
   -5   -4   -4    2    2    0.000004    0.000000
   -5   -3   -8    1    1   -0.000024    0.000000
   -5   -3   -8    2    1    0.000005    0.000000
   -5   -3   -8    1    2    0.000005    0.000000
   -5   -3   -8    2    2    0.000072    0.000000
   -5   -3   -7    1    1    0.000008    0.000000
   -5   -3   -7    2    1    0.000012    0.000000
   -5   -3   -7    1    2    0.000012    0.000000
   -5   -3   -7    2    2    0.000004    0.000000
   -5   -3   -6    1    1   -0.000001    0.000000
   -5   -3   -6    2    1   -0.000007    0.000000
   -5   -3   -6    1    2   -0.000007    0.000000
   -5   -3   -6    2    2    0.000023    0.000000
   -5   -3   -5    1    1    0.000003    0.000000
   -5   -3   -5    2    1   -0.000001    0.000000
   -5   -3   -5    1    2   -0.000001    0.000000
   -5   -3   -5    2    2    0.000001    0.000000
   -5   -3   -4    1    1   -0.000004    0.000000
   -5   -3   -4    2    1   -0.000003    0.000000
   -5   -3   -4    1    2   -0.000003    0.000000
   -5   -3   -4    2    2   -0.000010    0.000000
   -5   -3   -3    1    1   -0.000003    0.000000
   -5   -3   -3    2    1    0.000000    0.000000
   -5   -3   -3    1    2    0.000000    0.000000
   -5   -3   -3    2    2   -0.000001    0.000000
   -5   -2   -7    1    1   -0.000010    0.000000
   -5   -2   -7    2    1   -0.000036    0.000000
   -5   -2   -7    1    2   -0.000036    0.000000
   -5   -2   -7    2    2   -0.000086    0.000000
   -5   -2   -6    1    1    0.000016    0.000000
   -5   -2   -6    2    1    0.000014    0.000000
   -5   -2   -6    1    2    0.000014    0.000000
   -5   -2   -6    2    2   -0.000006    0.000000
   -5   -2   -5    1    1    0.000005    0.000000
   -5   -2   -5    2    1    0.000019    0.000000
   -5   -2   -5    1    2    0.000019    0.000000
   -5   -2   -5    2    2   -0.000006    0.000000
   -5   -2   -4    1    1    0.000004    0.000000
   -5   -2   -4    2    1   -0.000009    0.000000
   -5   -2   -4    1    2   -0.000009    0.000000
   -5   -2   -4    2    2    0.000001    0.000000
   -5   -2   -3    1    1   -0.000013    0.000000
   -5   -2   -3    2    1   -0.000001    0.000000
   -5   -2   -3    1    2   -0.000001    0.000000
   -5   -2   -3    2    2    0.000004    0.000000
   -5   -2   -2    1    1   -0.000003    0.000000
   -5   -2   -2    2    1    0.000000    0.000000
   -5   -2   -2    1    2    0.000000    0.000000
   -5   -2   -2    2    2   -0.000001    0.000000
   -5   -1   -6    1    1   -0.000051    0.000000
   -5   -1   -6    2    1   -0.000150    0.000000
   -5   -1   -6    1    2   -0.000150    0.000000
   -5   -1   -6    2    2   -0.000292    0.000000
   -5   -1   -5    1    1    0.000014    0.000000
   -5   -1   -5    2    1    0.000014    0.000000
   -5   -1   -5    1    2    0.000014    0.000000
   -5   -1   -5    2    2   -0.000027    0.000000
   -5   -1   -4    1    1   -0.000002    0.000000
   -5   -1   -4    2    1   -0.000005    0.000000
   -5   -1   -4    1    2   -0.000005    0.000000
   -5   -1   -4    2    2    0.000004    0.000000
   -5   -1   -3    1    1    0.000004    0.000000
   -5   -1   -3    2    1   -0.000009    0.000000
   -5   -1   -3    1    2   -0.000009    0.000000
   -5   -1   -3    2    2    0.000001    0.000000
   -5   -1   -2    1    1   -0.000004    0.000000
   -5   -1   -2    2    1   -0.000003    0.000000
   -5   -1   -2    1    2   -0.000003    0.000000
   -5   -1   -2    2    2   -0.000010    0.000000
   -5   -1   -1    1    1   -0.000002    0.000000
   -5   -1   -1    2    1    0.000001    0.000000
   -5   -1   -1    1    2    0.000001    0.000000
   -5   -1   -1    2    2    0.000004    0.000000
   -5    0   -5    1    1   -0.000142    0.000000
   -5    0   -5    2    1   -0.000397    0.000000
   -5    0   -5    1    2   -0.000397    0.000000
   -5    0   -5    2    2   -0.000893    0.000000
   -5    0   -4    1    1    0.000014    0.000000
   -5    0   -4    2    1    0.000014    0.000000
   -5    0   -4    1    2    0.000014    0.000000
   -5    0   -4    2    2   -0.000027    0.000000
   -5    0   -3    1    1    0.000005    0.000000
   -5    0   -3    2    1    0.000019    0.000000
   -5    0   -3    1    2    0.000019    0.000000
   -5    0   -3    2    2   -0.000006    0.000000
   -5    0   -2    1    1    0.000003    0.000000
   -5    0   -2    2    1   -0.000001    0.000000
   -5    0   -2    1    2   -0.000001    0.000000
   -5    0   -2    2    2    0.000001    0.000000
   -5    0   -1    1    1   -0.000004    0.000000
   -5    0   -1    2    1   -0.000001    0.000000
   -5    0   -1    1    2   -0.000001    0.000000
   -5    0   -1    2    2    0.000003    0.000000
   -5    0    0    1    1    0.000000    0.000000
   -5    0    0    2    1    0.000000    0.000000
   -5    0    0    1    2    0.000000    0.000000
   -5    0    0    2    2    0.000019    0.000000
   -5    1   -4    1    1   -0.000051    0.000000
   -5    1   -4    2    1   -0.000150    0.000000
   -5    1   -4    1    2   -0.000150    0.000000
   -5    1   -4    2    2   -0.000292    0.000000
   -5    1   -3    1    1    0.000016    0.000000
   -5    1   -3    2    1    0.000014    0.000000
   -5    1   -3    1    2    0.000014    0.000000
   -5    1   -3    2    2   -0.000006    0.000000
   -5    1   -2    1    1   -0.000001    0.000000
   -5    1   -2    2    1   -0.000007    0.000000
   -5    1   -2    1    2   -0.000007    0.000000
   -5    1   -2    2    2    0.000023    0.000000
   -5    1   -1    1    1    0.000000    0.000000
   -5    1   -1    2    1    0.000003    0.000000
   -5    1   -1    1    2    0.000003    0.000000
   -5    1   -1    2    2    0.000003    0.000000
   -5    1    0    1    1   -0.000003    0.000000
   -5    1    0    2    1    0.000000    0.000000
   -5    1    0    1    2    0.000000    0.000000
   -5    1    0    2    2    0.000000    0.000000
   -5    2   -3    1    1   -0.000010    0.000000
   -5    2   -3    2    1   -0.000036    0.000000
   -5    2   -3    1    2   -0.000036    0.000000
   -5    2   -3    2    2   -0.000086    0.000000
   -5    2   -2    1    1    0.000008    0.000000
   -5    2   -2    2    1    0.000012    0.000000
   -5    2   -2    1    2    0.000012    0.000000
   -5    2   -2    2    2    0.000004    0.000000
   -5    2   -1    1    1   -0.000004    0.000000
   -5    2   -1    2    1    0.000003    0.000000
   -5    2   -1    1    2    0.000003    0.000000
   -5    2   -1    2    2   -0.000024    0.000000
   -5    2    0    1    1    0.000003    0.000000
   -5    2    0    2    1    0.000000    0.000000
   -5    2    0    1    2    0.000000    0.000000
   -5    2    0    2    2    0.000006    0.000000
   -5    2    1    1    1    0.000006    0.000000
   -5    2    1    2    1   -0.000001    0.000000
   -5    2    1    1    2   -0.000001    0.000000
   -5    2    1    2    2    0.000004    0.000000
   -5    3   -2    1    1   -0.000024    0.000000
   -5    3   -2    2    1    0.000005    0.000000
   -5    3   -2    1    2    0.000005    0.000000
   -5    3   -2    2    2    0.000072    0.000000
   -5    3   -1    1    1    0.000001    0.000000
   -5    3   -1    2    1   -0.000001    0.000000
   -5    3   -1    1    2   -0.000001    0.000000
   -5    3   -1    2    2    0.000004    0.000000
   -5    3    0    1    1    0.000000    0.000000
   -5    3    0    2    1    0.000000    0.000000
   -5    3    0    1    2    0.000000    0.000000
   -5    3    0    2    2    0.000031    0.000000
   -5    3    1    1    1   -0.000002    0.000000
   -5    3    1    2    1    0.000002    0.000000
   -5    3    1    1    2    0.000002    0.000000
   -5    3    1    2    2   -0.000001    0.000000
   -5    3    2    1    1    0.000009    0.000000
   -5    3    2    2    1    0.000001    0.000000
   -5    3    2    1    2    0.000001    0.000000
   -5    3    2    2    2    0.000007    0.000000
   -5    4   -1    1    1   -0.000001    0.000000
   -5    4   -1    2    1   -0.000005    0.000000
   -5    4   -1    1    2   -0.000005    0.000000
   -5    4   -1    2    2   -0.000075    0.000000
   -5    4    0    1    1   -0.000002    0.000000
   -5    4    0    2    1    0.000000    0.000000
   -5    4    0    1    2    0.000000    0.000000
   -5    4    0    2    2   -0.000004    0.000000
   -5    4    1    1    1    0.000005    0.000000
   -5    4    1    2    1   -0.000007    0.000000
   -5    4    1    1    2   -0.000007    0.000000
   -5    4    1    2    2   -0.000038    0.000000
   -5    5    0    1    1   -0.000023    0.000000
   -5    5    0    2    1    0.000000    0.000000
   -5    5    0    1    2    0.000000    0.000000
   -5    5    0    2    2    0.000082    0.000000
   -4   -7   -7    1    1    0.000003    0.000000
   -4   -7   -7    2    1   -0.000006    0.000000
   -4   -7   -7    1    2   -0.000006    0.000000
   -4   -7   -7    2    2   -0.000009    0.000000
   -4   -6   -8    1    1    0.000003    0.000000
   -4   -6   -8    2    1    0.000014    0.000000
   -4   -6   -8    1    2    0.000014    0.000000
   -4   -6   -8    2    2    0.000034    0.000000
   -4   -6   -7    1    1   -0.000001    0.000000
   -4   -6   -7    2    1    0.000004    0.000000
   -4   -6   -7    1    2    0.000004    0.000000
   -4   -6   -7    2    2   -0.000004    0.000000
   -4   -6   -6    1    1    0.000006    0.000000
   -4   -6   -6    2    1    0.000002    0.000000
   -4   -6   -6    1    2    0.000002    0.000000
   -4   -6   -6    2    2    0.000007    0.000000
   -4   -6   -5    1    1    0.000004    0.000000
   -4   -6   -5    2    1    0.000000    0.000000
   -4   -6   -5    1    2    0.000000    0.000000
   -4   -6   -5    2    2   -0.000001    0.000000
   -4   -5   -9    1    1   -0.000001    0.000000
   -4   -5   -9    2    1    0.000005    0.000000
   -4   -5   -9    1    2    0.000005    0.000000
   -4   -5   -9    2    2   -0.000075    0.000000
   -4   -5   -8    1    1    0.000001    0.000000
   -4   -5   -8    2    1    0.000001    0.000000
   -4   -5   -8    1    2    0.000001    0.000000
   -4   -5   -8    2    2    0.000004    0.000000
   -4   -5   -7    1    1   -0.000004    0.000000
   -4   -5   -7    2    1   -0.000003    0.000000
   -4   -5   -7    1    2   -0.000003    0.000000
   -4   -5   -7    2    2   -0.000024    0.000000
   -4   -5   -6    1    1    0.000000    0.000000
   -4   -5   -6    2    1   -0.000003    0.000000
   -4   -5   -6    1    2   -0.000003    0.000000
   -4   -5   -6    2    2    0.000003    0.000000
   -4   -5   -5    1    1   -0.000004    0.000000
   -4   -5   -5    2    1    0.000001    0.000000
   -4   -5   -5    1    2    0.000001    0.000000
   -4   -5   -5    2    2    0.000003    0.000000
   -4   -5   -4    1    1   -0.000002    0.000000
   -4   -5   -4    2    1   -0.000001    0.000000
   -4   -5   -4    1    2   -0.000001    0.000000
   -4   -5   -4    2    2    0.000004    0.000000
   -4   -4  -10    1    1    0.000017    0.000000
   -4   -4  -10    2    1    0.000000    0.000000
   -4   -4  -10    1    2    0.000000    0.000000
   -4   -4  -10    2    2    0.000050    0.000000
   -4   -4   -9    1    1   -0.000002    0.000000
   -4   -4   -9    2    1    0.000000    0.000000
   -4   -4   -9    1    2    0.000000    0.000000
   -4   -4   -9    2    2   -0.000004    0.000000
   -4   -4   -8    1    1   -0.000009    0.000000
   -4   -4   -8    2    1    0.000000    0.000000
   -4   -4   -8    1    2    0.000000    0.000000
   -4   -4   -8    2    2    0.000128    0.000000
   -4   -4   -7    1    1    0.000009    0.000000
   -4   -4   -7    2    1    0.000000    0.000000
   -4   -4   -7    1    2    0.000000    0.000000
   -4   -4   -7    2    2    0.000018    0.000000
   -4   -4   -6    1    1    0.000004    0.000000
   -4   -4   -6    2    1    0.000000    0.000000
   -4   -4   -6    1    2    0.000000    0.000000
   -4   -4   -6    2    2    0.000047    0.000000
   -4   -4   -5    1    1   -0.000001    0.000000
   -4   -4   -5    2    1    0.000000    0.000000
   -4   -4   -5    1    2    0.000000    0.000000
   -4   -4   -5    2    2    0.000013    0.000000
   -4   -4   -4    1    1    0.000004    0.000000
   -4   -4   -4    2    1    0.000000    0.000000
   -4   -4   -4    1    2    0.000000    0.000000
   -4   -4   -4    2    2   -0.000019    0.000000
   -4   -4   -3    1    1    0.000002    0.000000
   -4   -4   -3    2    1    0.000000    0.000000
   -4   -4   -3    1    2    0.000000    0.000000
   -4   -4   -3    2    2   -0.000006    0.000000
   -4   -3   -9    1    1    0.000005    0.000000
   -4   -3   -9    2    1    0.000007    0.000000
   -4   -3   -9    1    2    0.000007    0.000000
   -4   -3   -9    2    2   -0.000038    0.000000
   -4   -3   -8    1    1    0.000001    0.000000
   -4   -3   -8    2    1   -0.000001    0.000000
   -4   -3   -8    1    2   -0.000001    0.000000
   -4   -3   -8    2    2    0.000004    0.000000
   -4   -3   -7    1    1   -0.000017    0.000000
   -4   -3   -7    2    1   -0.000041    0.000000
   -4   -3   -7    1    2   -0.000041    0.000000
   -4   -3   -7    2    2   -0.000142    0.000000
   -4   -3   -6    1    1    0.000014    0.000000
   -4   -3   -6    2    1    0.000014    0.000000
   -4   -3   -6    1    2    0.000014    0.000000
   -4   -3   -6    2    2    0.000007    0.000000
   -4   -3   -5    1    1   -0.000004    0.000000
   -4   -3   -5    2    1    0.000007    0.000000
   -4   -3   -5    1    2    0.000007    0.000000
   -4   -3   -5    2    2   -0.000028    0.000000
   -4   -3   -4    1    1   -0.000009    0.000000
   -4   -3   -4    2    1    0.000011    0.000000
   -4   -3   -4    1    2    0.000011    0.000000
   -4   -3   -4    2    2   -0.000004    0.000000
   -4   -3   -3    1    1    0.000014    0.000000
   -4   -3   -3    2    1    0.000006    0.000000
   -4   -3   -3    1    2    0.000006    0.000000
   -4   -3   -3    2    2    0.000007    0.000000
   -4   -3   -2    1    1    0.000002    0.000000
   -4   -3   -2    2    1    0.000002    0.000000
   -4   -3   -2    1    2    0.000002    0.000000
   -4   -3   -2    2    2    0.000007    0.000000
   -4   -2   -8    1    1    0.000003    0.000000
   -4   -2   -8    2    1   -0.000014    0.000000
   -4   -2   -8    1    2   -0.000014    0.000000
   -4   -2   -8    2    2    0.000034    0.000000
   -4   -2   -7    1    1    0.000008    0.000000
   -4   -2   -7    2    1    0.000012    0.000000
   -4   -2   -7    1    2    0.000012    0.000000
   -4   -2   -7    2    2    0.000004    0.000000
   -4   -2   -6    1    1   -0.000048    0.000000
   -4   -2   -6    2    1   -0.000043    0.000000
   -4   -2   -6    1    2   -0.000043    0.000000
   -4   -2   -6    2    2    0.000073    0.000000
   -4   -2   -5    1    1    0.000049    0.000000
   -4   -2   -5    2    1    0.000044    0.000000
   -4   -2   -5    1    2    0.000044    0.000000
   -4   -2   -5    2    2   -0.000012    0.000000
   -4   -2   -4    1    1    0.000008    0.000000
   -4   -2   -4    2    1   -0.000004    0.000000
   -4   -2   -4    1    2   -0.000004    0.000000
   -4   -2   -4    2    2   -0.000012    0.000000
   -4   -2   -3    1    1    0.000012    0.000000
   -4   -2   -3    2    1    0.000010    0.000000
   -4   -2   -3    1    2    0.000010    0.000000
   -4   -2   -3    2    2    0.000006    0.000000
   -4   -2   -2    1    1   -0.000012    0.000000
   -4   -2   -2    2    1   -0.000002    0.000000
   -4   -2   -2    1    2   -0.000002    0.000000
   -4   -2   -2    2    2    0.000000    0.000000
   -4   -2   -1    1    1    0.000002    0.000000
   -4   -2   -1    2    1    0.000002    0.000000
   -4   -2   -1    1    2    0.000002    0.000000
   -4   -2   -1    2    2    0.000007    0.000000
   -4   -1   -7    1    1    0.000000    0.000000
   -4   -1   -7    2    1    0.000011    0.000000
   -4   -1   -7    1    2    0.000011    0.000000
   -4   -1   -7    2    2   -0.000033    0.000000
   -4   -1   -6    1    1    0.000016    0.000000
   -4   -1   -6    2    1    0.000014    0.000000
   -4   -1   -6    1    2    0.000014    0.000000
   -4   -1   -6    2    2   -0.000006    0.000000
   -4   -1   -5    1    1   -0.000115    0.000000
   -4   -1   -5    2    1   -0.000239    0.000000
   -4   -1   -5    1    2   -0.000239    0.000000
   -4   -1   -5    2    2   -0.000478    0.000000
   -4   -1   -4    1    1    0.000027    0.000000
   -4   -1   -4    2    1    0.000039    0.000000
   -4   -1   -4    1    2    0.000039    0.000000
   -4   -1   -4    2    2   -0.000047    0.000000
   -4   -1   -3    1    1   -0.000044    0.000000
   -4   -1   -3    2    1   -0.000006    0.000000
   -4   -1   -3    1    2   -0.000006    0.000000
   -4   -1   -3    2    2    0.000000    0.000000
   -4   -1   -2    1    1    0.000012    0.000000
   -4   -1   -2    2    1    0.000010    0.000000
   -4   -1   -2    1    2    0.000010    0.000000
   -4   -1   -2    2    2    0.000006    0.000000
   -4   -1   -1    1    1    0.000014    0.000000
   -4   -1   -1    2    1    0.000006    0.000000
   -4   -1   -1    1    2    0.000006    0.000000
   -4   -1   -1    2    2    0.000007    0.000000
   -4   -1    0    1    1    0.000002    0.000000
   -4   -1    0    2    1    0.000000    0.000000
   -4   -1    0    1    2    0.000000    0.000000
   -4   -1    0    2    2   -0.000006    0.000000
   -4    0   -6    1    1   -0.000006    0.000000
   -4    0   -6    2    1   -0.000009    0.000000
   -4    0   -6    1    2   -0.000009    0.000000
   -4    0   -6    2    2    0.000005    0.000000
   -4    0   -5    1    1    0.000014    0.000000
   -4    0   -5    2    1    0.000014    0.000000
   -4    0   -5    1    2    0.000014    0.000000
   -4    0   -5    2    2   -0.000027    0.000000
   -4    0   -4    1    1   -0.000303    0.000000
   -4    0   -4    2    1   -0.000737    0.000000
   -4    0   -4    1    2   -0.000737    0.000000
   -4    0   -4    2    2   -0.001829    0.000000
   -4    0   -3    1    1    0.000027    0.000000
   -4    0   -3    2    1    0.000039    0.000000
   -4    0   -3    1    2    0.000039    0.000000
   -4    0   -3    2    2   -0.000047    0.000000
   -4    0   -2    1    1    0.000008    0.000000
   -4    0   -2    2    1   -0.000004    0.000000
   -4    0   -2    1    2   -0.000004    0.000000
   -4    0   -2    2    2   -0.000012    0.000000
   -4    0   -1    1    1   -0.000009    0.000000
   -4    0   -1    2    1    0.000011    0.000000
   -4    0   -1    1    2    0.000011    0.000000
   -4    0   -1    2    2   -0.000004    0.000000
   -4    0    0    1    1    0.000004    0.000000
   -4    0    0    2    1    0.000000    0.000000
   -4    0    0    1    2    0.000000    0.000000
   -4    0    0    2    2   -0.000019    0.000000
   -4    0    1    1    1   -0.000002    0.000000
   -4    0    1    2    1   -0.000001    0.000000
   -4    0    1    1    2   -0.000001    0.000000
   -4    0    1    2    2    0.000004    0.000000
   -4    1   -5    1    1   -0.000006    0.000000
   -4    1   -5    2    1    0.000013    0.000000
   -4    1   -5    1    2    0.000013    0.000000
   -4    1   -5    2    2    0.000010    0.000000
   -4    1   -4    1    1    0.000014    0.000000
   -4    1   -4    2    1    0.000014    0.000000
   -4    1   -4    1    2    0.000014    0.000000
   -4    1   -4    2    2   -0.000027    0.000000
   -4    1   -3    1    1   -0.000115    0.000000
   -4    1   -3    2    1   -0.000239    0.000000
   -4    1   -3    1    2   -0.000239    0.000000
   -4    1   -3    2    2   -0.000478    0.000000
   -4    1   -2    1    1    0.000049    0.000000
   -4    1   -2    2    1    0.000044    0.000000
   -4    1   -2    1    2    0.000044    0.000000
   -4    1   -2    2    2   -0.000012    0.000000
   -4    1   -1    1    1   -0.000004    0.000000
   -4    1   -1    2    1    0.000007    0.000000
   -4    1   -1    1    2    0.000007    0.000000
   -4    1   -1    2    2   -0.000028    0.000000
   -4    1    0    1    1   -0.000001    0.000000
   -4    1    0    2    1    0.000000    0.000000
   -4    1    0    1    2    0.000000    0.000000
   -4    1    0    2    2    0.000013    0.000000
   -4    1    1    1    1   -0.000004    0.000000
   -4    1    1    2    1    0.000001    0.000000
   -4    1    1    1    2    0.000001    0.000000
   -4    1    1    2    2    0.000003    0.000000
   -4    1    2    1    1    0.000004    0.000000
   -4    1    2    2    1    0.000000    0.000000
   -4    1    2    1    2    0.000000    0.000000
   -4    1    2    2    2   -0.000001    0.000000
   -4    2   -4    1    1   -0.000006    0.000000
   -4    2   -4    2    1   -0.000009    0.000000
   -4    2   -4    1    2   -0.000009    0.000000
   -4    2   -4    2    2    0.000005    0.000000
   -4    2   -3    1    1    0.000016    0.000000
   -4    2   -3    2    1    0.000014    0.000000
   -4    2   -3    1    2    0.000014    0.000000
   -4    2   -3    2    2   -0.000006    0.000000
   -4    2   -2    1    1   -0.000048    0.000000
   -4    2   -2    2    1   -0.000043    0.000000
   -4    2   -2    1    2   -0.000043    0.000000
   -4    2   -2    2    2    0.000073    0.000000
   -4    2   -1    1    1    0.000014    0.000000
   -4    2   -1    2    1    0.000014    0.000000
   -4    2   -1    1    2    0.000014    0.000000
   -4    2   -1    2    2    0.000007    0.000000
   -4    2    0    1    1    0.000004    0.000000
   -4    2    0    2    1    0.000000    0.000000
   -4    2    0    1    2    0.000000    0.000000
   -4    2    0    2    2    0.000047    0.000000
   -4    2    1    1    1    0.000000    0.000000
   -4    2    1    2    1   -0.000003    0.000000
   -4    2    1    1    2   -0.000003    0.000000
   -4    2    1    2    2    0.000003    0.000000
   -4    2    2    1    1    0.000006    0.000000
   -4    2    2    2    1    0.000002    0.000000
   -4    2    2    1    2    0.000002    0.000000
   -4    2    2    2    2    0.000007    0.000000
   -4    3   -3    1    1    0.000000    0.000000
   -4    3   -3    2    1    0.000011    0.000000
   -4    3   -3    1    2    0.000011    0.000000
   -4    3   -3    2    2   -0.000033    0.000000
   -4    3   -2    1    1    0.000008    0.000000
   -4    3   -2    2    1    0.000012    0.000000
   -4    3   -2    1    2    0.000012    0.000000
   -4    3   -2    2    2    0.000004    0.000000
   -4    3   -1    1    1   -0.000017    0.000000
   -4    3   -1    2    1   -0.000041    0.000000
   -4    3   -1    1    2   -0.000041    0.000000
   -4    3   -1    2    2   -0.000142    0.000000
   -4    3    0    1    1    0.000009    0.000000
   -4    3    0    2    1    0.000000    0.000000
   -4    3    0    1    2    0.000000    0.000000
   -4    3    0    2    2    0.000018    0.000000
   -4    3    1    1    1   -0.000004    0.000000
   -4    3    1    2    1   -0.000003    0.000000
   -4    3    1    1    2   -0.000003    0.000000
   -4    3    1    2    2   -0.000024    0.000000
   -4    3    2    1    1   -0.000001    0.000000
   -4    3    2    2    1    0.000004    0.000000
   -4    3    2    1    2    0.000004    0.000000
   -4    3    2    2    2   -0.000004    0.000000
   -4    3    3    1    1    0.000003    0.000000
   -4    3    3    2    1   -0.000006    0.000000
   -4    3    3    1    2   -0.000006    0.000000
   -4    3    3    2    2   -0.000009    0.000000
   -4    4   -2    1    1    0.000003    0.000000
   -4    4   -2    2    1   -0.000014    0.000000
   -4    4   -2    1    2   -0.000014    0.000000
   -4    4   -2    2    2    0.000034    0.000000
   -4    4   -1    1    1    0.000001    0.000000
   -4    4   -1    2    1   -0.000001    0.000000
   -4    4   -1    1    2   -0.000001    0.000000
   -4    4   -1    2    2    0.000004    0.000000
   -4    4    0    1    1   -0.000009    0.000000
   -4    4    0    2    1    0.000000    0.000000
   -4    4    0    1    2    0.000000    0.000000
   -4    4    0    2    2    0.000128    0.000000
   -4    4    1    1    1    0.000001    0.000000
   -4    4    1    2    1    0.000001    0.000000
   -4    4    1    1    2    0.000001    0.000000
   -4    4    1    2    2    0.000004    0.000000
   -4    4    2    1    1    0.000003    0.000000
   -4    4    2    2    1    0.000014    0.000000
   -4    4    2    1    2    0.000014    0.000000
   -4    4    2    2    2    0.000034    0.000000
   -4    5   -1    1    1    0.000005    0.000000
   -4    5   -1    2    1    0.000007    0.000000
   -4    5   -1    1    2    0.000007    0.000000
   -4    5   -1    2    2   -0.000038    0.000000
   -4    5    0    1    1   -0.000002    0.000000
   -4    5    0    2    1    0.000000    0.000000
   -4    5    0    1    2    0.000000    0.000000
   -4    5    0    2    2   -0.000004    0.000000
   -4    5    1    1    1   -0.000001    0.000000
   -4    5    1    2    1    0.000005    0.000000
   -4    5    1    1    2    0.000005    0.000000
   -4    5    1    2    2   -0.000075    0.000000
   -4    6    0    1    1    0.000017    0.000000
   -4    6    0    2    1    0.000000    0.000000
   -4    6    0    1    2    0.000000    0.000000
   -4    6    0    2    2    0.000050    0.000000
   -3   -7   -6    1    1    0.000009    0.000000
   -3   -7   -6    2    1    0.000005    0.000000
   -3   -7   -6    1    2    0.000005    0.000000
   -3   -7   -6    2    2    0.000010    0.000000
   -3   -7   -5    1    1   -0.000007    0.000000
   -3   -7   -5    2    1    0.000000    0.000000
   -3   -7   -5    1    2    0.000000    0.000000
   -3   -7   -5    2    2   -0.000007    0.000000
   -3   -6   -7    1    1    0.000000    0.000000
   -3   -6   -7    2    1   -0.000011    0.000000
   -3   -6   -7    1    2   -0.000011    0.000000
   -3   -6   -7    2    2   -0.000033    0.000000
   -3   -6   -6    1    1    0.000004    0.000000
   -3   -6   -6    2    1   -0.000001    0.000000
   -3   -6   -6    1    2   -0.000001    0.000000
   -3   -6   -6    2    2    0.000004    0.000000
   -3   -6   -5    1    1    0.000014    0.000000
   -3   -6   -5    2    1    0.000000    0.000000
   -3   -6   -5    1    2    0.000000    0.000000
   -3   -6   -5    2    2   -0.000002    0.000000
   -3   -6   -4    1    1   -0.000001    0.000000
   -3   -6   -4    2    1   -0.000004    0.000000
   -3   -6   -4    1    2   -0.000004    0.000000
   -3   -6   -4    2    2    0.000004    0.000000
   -3   -5   -8    1    1   -0.000024    0.000000
   -3   -5   -8    2    1   -0.000005    0.000000
   -3   -5   -8    1    2   -0.000005    0.000000
   -3   -5   -8    2    2    0.000072    0.000000
   -3   -5   -7    1    1    0.000008    0.000000
   -3   -5   -7    2    1   -0.000012    0.000000
   -3   -5   -7    1    2   -0.000012    0.000000
   -3   -5   -7    2    2    0.000004    0.000000
   -3   -5   -6    1    1   -0.000001    0.000000
   -3   -5   -6    2    1    0.000007    0.000000
   -3   -5   -6    1    2    0.000007    0.000000
   -3   -5   -6    2    2    0.000023    0.000000
   -3   -5   -5    1    1    0.000003    0.000000
   -3   -5   -5    2    1    0.000001    0.000000
   -3   -5   -5    1    2    0.000001    0.000000
   -3   -5   -5    2    2    0.000001    0.000000
   -3   -5   -4    1    1   -0.000004    0.000000
   -3   -5   -4    2    1    0.000003    0.000000
   -3   -5   -4    1    2    0.000003    0.000000
   -3   -5   -4    2    2   -0.000010    0.000000
   -3   -5   -3    1    1   -0.000003    0.000000
   -3   -5   -3    2    1    0.000000    0.000000
   -3   -5   -3    1    2    0.000000    0.000000
   -3   -5   -3    2    2   -0.000001    0.000000
   -3   -4   -9    1    1    0.000005    0.000000
   -3   -4   -9    2    1   -0.000007    0.000000
   -3   -4   -9    1    2   -0.000007    0.000000
   -3   -4   -9    2    2   -0.000038    0.000000
   -3   -4   -8    1    1    0.000001    0.000000
   -3   -4   -8    2    1    0.000001    0.000000
   -3   -4   -8    1    2    0.000001    0.000000
   -3   -4   -8    2    2    0.000004    0.000000
   -3   -4   -7    1    1   -0.000017    0.000000
   -3   -4   -7    2    1    0.000041    0.000000
   -3   -4   -7    1    2    0.000041    0.000000
   -3   -4   -7    2    2   -0.000142    0.000000
   -3   -4   -6    1    1    0.000014    0.000000
   -3   -4   -6    2    1   -0.000014    0.000000
   -3   -4   -6    1    2   -0.000014    0.000000
   -3   -4   -6    2    2    0.000007    0.000000
   -3   -4   -5    1    1   -0.000004    0.000000
   -3   -4   -5    2    1   -0.000007    0.000000
   -3   -4   -5    1    2   -0.000007    0.000000
   -3   -4   -5    2    2   -0.000028    0.000000
   -3   -4   -4    1    1   -0.000009    0.000000
   -3   -4   -4    2    1   -0.000011    0.000000
   -3   -4   -4    1    2   -0.000011    0.000000
   -3   -4   -4    2    2   -0.000004    0.000000
   -3   -4   -3    1    1    0.000014    0.000000
   -3   -4   -3    2    1   -0.000006    0.000000
   -3   -4   -3    1    2   -0.000006    0.000000
   -3   -4   -3    2    2    0.000007    0.000000
   -3   -4   -2    1    1    0.000002    0.000000
   -3   -4   -2    2    1   -0.000002    0.000000
   -3   -4   -2    1    2   -0.000002    0.000000
   -3   -4   -2    2    2    0.000007    0.000000
   -3   -3  -10    1    1   -0.000002    0.000000
   -3   -3  -10    2    1    0.000000    0.000000
   -3   -3  -10    1    2    0.000000    0.000000
   -3   -3  -10    2    2   -0.000007    0.000000
   -3   -3   -9    1    1   -0.000012    0.000000
   -3   -3   -9    2    1    0.000000    0.000000
   -3   -3   -9    1    2    0.000000    0.000000
   -3   -3   -9    2    2    0.000000    0.000000
   -3   -3   -8    1    1    0.000000    0.000000
   -3   -3   -8    2    1    0.000000    0.000000
   -3   -3   -8    1    2    0.000000    0.000000
   -3   -3   -8    2    2    0.000031    0.000000
   -3   -3   -7    1    1    0.000009    0.000000
   -3   -3   -7    2    1    0.000000    0.000000
   -3   -3   -7    1    2    0.000000    0.000000
   -3   -3   -7    2    2    0.000018    0.000000
   -3   -3   -6    1    1   -0.000075    0.000000
   -3   -3   -6    2    1    0.000000    0.000000
   -3   -3   -6    1    2    0.000000    0.000000
   -3   -3   -6    2    2    0.000577    0.000000
   -3   -3   -5    1    1    0.000034    0.000000
   -3   -3   -5    2    1    0.000000    0.000000
   -3   -3   -5    1    2    0.000000    0.000000
   -3   -3   -5    2    2    0.000102    0.000000
   -3   -3   -4    1    1    0.000012    0.000000
   -3   -3   -4    2    1    0.000000    0.000000
   -3   -3   -4    1    2    0.000000    0.000000
   -3   -3   -4    2    2    0.000032    0.000000
   -3   -3   -3    1    1   -0.000017    0.000000
   -3   -3   -3    2    1    0.000000    0.000000
   -3   -3   -3    1    2    0.000000    0.000000
   -3   -3   -3    2    2    0.000010    0.000000
   -3   -3   -2    1    1   -0.000016    0.000000
   -3   -3   -2    2    1    0.000000    0.000000
   -3   -3   -2    1    2    0.000000    0.000000
   -3   -3   -2    2    2   -0.000008    0.000000
   -3   -3   -1    1    1   -0.000002    0.000000
   -3   -3   -1    2    1    0.000000    0.000000
   -3   -3   -1    1    2    0.000000    0.000000
   -3   -3   -1    2    2   -0.000001    0.000000
   -3   -2   -9    1    1    0.000006    0.000000
   -3   -2   -9    2    1    0.000000    0.000000
   -3   -2   -9    1    2    0.000000    0.000000
   -3   -2   -9    2    2   -0.000004    0.000000
   -3   -2   -8    1    1   -0.000002    0.000000
   -3   -2   -8    2    1   -0.000002    0.000000
   -3   -2   -8    1    2   -0.000002    0.000000
   -3   -2   -8    2    2   -0.000001    0.000000
   -3   -2   -7    1    1   -0.000004    0.000000
   -3   -2   -7    2    1    0.000003    0.000000
   -3   -2   -7    1    2    0.000003    0.000000
   -3   -2   -7    2    2   -0.000024    0.000000
   -3   -2   -6    1    1    0.000014    0.000000
   -3   -2   -6    2    1    0.000014    0.000000
   -3   -2   -6    1    2    0.000014    0.000000
   -3   -2   -6    2    2    0.000007    0.000000
   -3   -2   -5    1    1   -0.000166    0.000000
   -3   -2   -5    2    1   -0.000235    0.000000
   -3   -2   -5    1    2   -0.000235    0.000000
   -3   -2   -5    2    2   -0.000581    0.000000
   -3   -2   -4    1    1    0.000142    0.000000
   -3   -2   -4    2    1    0.000201    0.000000
   -3   -2   -4    1    2    0.000201    0.000000
   -3   -2   -4    2    2    0.000073    0.000000
   -3   -2   -3    1    1    0.000137    0.000000
   -3   -2   -3    2    1    0.000066    0.000000
   -3   -2   -3    1    2    0.000066    0.000000
   -3   -2   -3    2    2    0.000028    0.000000
   -3   -2   -2    1    1   -0.000064    0.000000
   -3   -2   -2    2    1    0.000013    0.000000
   -3   -2   -2    1    2    0.000013    0.000000
   -3   -2   -2    2    2   -0.000007    0.000000
   -3   -2   -1    1    1   -0.000013    0.000000
   -3   -2   -1    2    1    0.000000    0.000000
   -3   -2   -1    1    2    0.000000    0.000000
   -3   -2   -1    2    2    0.000007    0.000000
   -3   -2    0    1    1   -0.000002    0.000000
   -3   -2    0    2    1    0.000000    0.000000
   -3   -2    0    1    2    0.000000    0.000000
   -3   -2    0    2    2   -0.000001    0.000000
   -3   -1   -8    1    1    0.000009    0.000000
   -3   -1   -8    2    1   -0.000001    0.000000
   -3   -1   -8    1    2   -0.000001    0.000000
   -3   -1   -8    2    2    0.000007    0.000000
   -3   -1   -7    1    1   -0.000001    0.000000
   -3   -1   -7    2    1   -0.000004    0.000000
   -3   -1   -7    1    2   -0.000004    0.000000
   -3   -1   -7    2    2   -0.000004    0.000000
   -3   -1   -6    1    1   -0.000001    0.000000
   -3   -1   -6    2    1   -0.000007    0.000000
   -3   -1   -6    1    2   -0.000007    0.000000
   -3   -1   -6    2    2    0.000023    0.000000
   -3   -1   -5    1    1    0.000049    0.000000
   -3   -1   -5    2    1    0.000044    0.000000
   -3   -1   -5    1    2    0.000044    0.000000
   -3   -1   -5    2    2   -0.000012    0.000000
   -3   -1   -4    1    1   -0.000320    0.000000
   -3   -1   -4    2    1   -0.000565    0.000000
   -3   -1   -4    1    2   -0.000565    0.000000
   -3   -1   -4    2    2   -0.000827    0.000000
   -3   -1   -3    1    1    0.000145    0.000000
   -3   -1   -3    2    1    0.000069    0.000000
   -3   -1   -3    1    2    0.000069    0.000000
   -3   -1   -3    2    2   -0.000352    0.000000
   -3   -1   -2    1    1    0.000179    0.000000
   -3   -1   -2    2    1    0.000124    0.000000
   -3   -1   -2    1    2    0.000124    0.000000
   -3   -1   -2    2    2   -0.000087    0.000000
   -3   -1   -1    1    1   -0.000064    0.000000
   -3   -1   -1    2    1    0.000013    0.000000
   -3   -1   -1    1    2    0.000013    0.000000
   -3   -1   -1    2    2   -0.000007    0.000000
   -3   -1    0    1    1   -0.000016    0.000000
   -3   -1    0    2    1    0.000000    0.000000
   -3   -1    0    1    2    0.000000    0.000000
   -3   -1    0    2    2   -0.000008    0.000000
   -3   -1    1    1    1    0.000002    0.000000
   -3   -1    1    2    1   -0.000002    0.000000
   -3   -1    1    1    2   -0.000002    0.000000
   -3   -1    1    2    2    0.000007    0.000000
   -3    0   -7    1    1    0.000003    0.000000
   -3    0   -7    2    1    0.000006    0.000000
   -3    0   -7    1    2    0.000006    0.000000
   -3    0   -7    2    2   -0.000009    0.000000
   -3    0   -6    1    1    0.000004    0.000000
   -3    0   -6    2    1    0.000001    0.000000
   -3    0   -6    1    2    0.000001    0.000000
   -3    0   -6    2    2    0.000004    0.000000
   -3    0   -5    1    1    0.000005    0.000000
   -3    0   -5    2    1    0.000019    0.000000
   -3    0   -5    1    2    0.000019    0.000000
   -3    0   -5    2    2   -0.000006    0.000000
   -3    0   -4    1    1    0.000027    0.000000
   -3    0   -4    2    1    0.000039    0.000000
   -3    0   -4    1    2    0.000039    0.000000
   -3    0   -4    2    2   -0.000047    0.000000
   -3    0   -3    1    1   -0.001244    0.000000
   -3    0   -3    2    1   -0.003112    0.000000
   -3    0   -3    1    2   -0.003112    0.000000
   -3    0   -3    2    2   -0.006975    0.000000
   -3    0   -2    1    1    0.000145    0.000000
   -3    0   -2    2    1    0.000069    0.000000
   -3    0   -2    1    2    0.000069    0.000000
   -3    0   -2    2    2   -0.000352    0.000000
   -3    0   -1    1    1    0.000137    0.000000
   -3    0   -1    2    1    0.000066    0.000000
   -3    0   -1    1    2    0.000066    0.000000
   -3    0   -1    2    2    0.000028    0.000000
   -3    0    0    1    1   -0.000017    0.000000
   -3    0    0    2    1    0.000000    0.000000
   -3    0    0    1    2    0.000000    0.000000
   -3    0    0    2    2    0.000010    0.000000
   -3    0    1    1    1    0.000014    0.000000
   -3    0    1    2    1   -0.000006    0.000000
   -3    0    1    1    2   -0.000006    0.000000
   -3    0    1    2    2    0.000007    0.000000
   -3    0    2    1    1   -0.000003    0.000000
   -3    0    2    2    1    0.000000    0.000000
   -3    0    2    1    2    0.000000    0.000000
   -3    0    2    2    2   -0.000001    0.000000
   -3    1   -6    1    1    0.000009    0.000000
   -3    1   -6    2    1   -0.000005    0.000000
   -3    1   -6    1    2   -0.000005    0.000000
   -3    1   -6    2    2    0.000010    0.000000
   -3    1   -5    1    1    0.000010    0.000000
   -3    1   -5    2    1   -0.000003    0.000000
   -3    1   -5    1    2   -0.000003    0.000000
   -3    1   -5    2    2    0.000002    0.000000
   -3    1   -4    1    1   -0.000002    0.000000
   -3    1   -4    2    1   -0.000005    0.000000
   -3    1   -4    1    2   -0.000005    0.000000
   -3    1   -4    2    2    0.000004    0.000000
   -3    1   -3    1    1    0.000027    0.000000
   -3    1   -3    2    1    0.000039    0.000000
   -3    1   -3    1    2    0.000039    0.000000
   -3    1   -3    2    2   -0.000047    0.000000
   -3    1   -2    1    1   -0.000320    0.000000
   -3    1   -2    2    1   -0.000565    0.000000
   -3    1   -2    1    2   -0.000565    0.000000
   -3    1   -2    2    2   -0.000827    0.000000
   -3    1   -1    1    1    0.000142    0.000000
   -3    1   -1    2    1    0.000201    0.000000
   -3    1   -1    1    2    0.000201    0.000000
   -3    1   -1    2    2    0.000073    0.000000
   -3    1    0    1    1    0.000012    0.000000
   -3    1    0    2    1    0.000000    0.000000
   -3    1    0    1    2    0.000000    0.000000
   -3    1    0    2    2    0.000032    0.000000
   -3    1    1    1    1   -0.000009    0.000000
   -3    1    1    2    1   -0.000011    0.000000
   -3    1    1    1    2   -0.000011    0.000000
   -3    1    1    2    2   -0.000004    0.000000
   -3    1    2    1    1   -0.000004    0.000000
   -3    1    2    2    1    0.000003    0.000000
   -3    1    2    1    2    0.000003    0.000000
   -3    1    2    2    2   -0.000010    0.000000
   -3    1    3    1    1   -0.000001    0.000000
   -3    1    3    2    1   -0.000004    0.000000
   -3    1    3    1    2   -0.000004    0.000000
   -3    1    3    2    2    0.000004    0.000000
   -3    2   -5    1    1   -0.000013    0.000000
   -3    2   -5    2    1    0.000022    0.000000
   -3    2   -5    1    2    0.000022    0.000000
   -3    2   -5    2    2   -0.000011    0.000000
   -3    2   -4    1    1    0.000010    0.000000
   -3    2   -4    2    1   -0.000003    0.000000
   -3    2   -4    1    2   -0.000003    0.000000
   -3    2   -4    2    2    0.000002    0.000000
   -3    2   -3    1    1    0.000005    0.000000
   -3    2   -3    2    1    0.000019    0.000000
   -3    2   -3    1    2    0.000019    0.000000
   -3    2   -3    2    2   -0.000006    0.000000
   -3    2   -2    1    1    0.000049    0.000000
   -3    2   -2    2    1    0.000044    0.000000
   -3    2   -2    1    2    0.000044    0.000000
   -3    2   -2    2    2   -0.000012    0.000000
   -3    2   -1    1    1   -0.000166    0.000000
   -3    2   -1    2    1   -0.000235    0.000000
   -3    2   -1    1    2   -0.000235    0.000000
   -3    2   -1    2    2   -0.000581    0.000000
   -3    2    0    1    1    0.000034    0.000000
   -3    2    0    2    1    0.000000    0.000000
   -3    2    0    1    2    0.000000    0.000000
   -3    2    0    2    2    0.000102    0.000000
   -3    2    1    1    1   -0.000004    0.000000
   -3    2    1    2    1   -0.000007    0.000000
   -3    2    1    1    2   -0.000007    0.000000
   -3    2    1    2    2   -0.000028    0.000000
   -3    2    2    1    1    0.000003    0.000000
   -3    2    2    2    1    0.000001    0.000000
   -3    2    2    1    2    0.000001    0.000000
   -3    2    2    2    2    0.000001    0.000000
   -3    2    3    1    1    0.000014    0.000000
   -3    2    3    2    1    0.000000    0.000000
   -3    2    3    1    2    0.000000    0.000000
   -3    2    3    2    2   -0.000002    0.000000
   -3    2    4    1    1   -0.000007    0.000000
   -3    2    4    2    1    0.000000    0.000000
   -3    2    4    1    2    0.000000    0.000000
   -3    2    4    2    2   -0.000007    0.000000
   -3    3   -4    1    1    0.000009    0.000000
   -3    3   -4    2    1   -0.000005    0.000000
   -3    3   -4    1    2   -0.000005    0.000000
   -3    3   -4    2    2    0.000010    0.000000
   -3    3   -3    1    1    0.000004    0.000000
   -3    3   -3    2    1    0.000001    0.000000
   -3    3   -3    1    2    0.000001    0.000000
   -3    3   -3    2    2    0.000004    0.000000
   -3    3   -2    1    1   -0.000001    0.000000
   -3    3   -2    2    1   -0.000007    0.000000
   -3    3   -2    1    2   -0.000007    0.000000
   -3    3   -2    2    2    0.000023    0.000000
   -3    3   -1    1    1    0.000014    0.000000
   -3    3   -1    2    1    0.000014    0.000000
   -3    3   -1    1    2    0.000014    0.000000
   -3    3   -1    2    2    0.000007    0.000000
   -3    3    0    1    1   -0.000075    0.000000
   -3    3    0    2    1    0.000000    0.000000
   -3    3    0    1    2    0.000000    0.000000
   -3    3    0    2    2    0.000577    0.000000
   -3    3    1    1    1    0.000014    0.000000
   -3    3    1    2    1   -0.000014    0.000000
   -3    3    1    1    2   -0.000014    0.000000
   -3    3    1    2    2    0.000007    0.000000
   -3    3    2    1    1   -0.000001    0.000000
   -3    3    2    2    1    0.000007    0.000000
   -3    3    2    1    2    0.000007    0.000000
   -3    3    2    2    2    0.000023    0.000000
   -3    3    3    1    1    0.000004    0.000000
   -3    3    3    2    1   -0.000001    0.000000
   -3    3    3    1    2   -0.000001    0.000000
   -3    3    3    2    2    0.000004    0.000000
   -3    3    4    1    1    0.000009    0.000000
   -3    3    4    2    1    0.000005    0.000000
   -3    3    4    1    2    0.000005    0.000000
   -3    3    4    2    2    0.000010    0.000000
   -3    4   -3    1    1    0.000003    0.000000
   -3    4   -3    2    1    0.000006    0.000000
   -3    4   -3    1    2    0.000006    0.000000
   -3    4   -3    2    2   -0.000009    0.000000
   -3    4   -2    1    1   -0.000001    0.000000
   -3    4   -2    2    1   -0.000004    0.000000
   -3    4   -2    1    2   -0.000004    0.000000
   -3    4   -2    2    2   -0.000004    0.000000
   -3    4   -1    1    1   -0.000004    0.000000
   -3    4   -1    2    1    0.000003    0.000000
   -3    4   -1    1    2    0.000003    0.000000
   -3    4   -1    2    2   -0.000024    0.000000
   -3    4    0    1    1    0.000009    0.000000
   -3    4    0    2    1    0.000000    0.000000
   -3    4    0    1    2    0.000000    0.000000
   -3    4    0    2    2    0.000018    0.000000
   -3    4    1    1    1   -0.000017    0.000000
   -3    4    1    2    1    0.000041    0.000000
   -3    4    1    1    2    0.000041    0.000000
   -3    4    1    2    2   -0.000142    0.000000
   -3    4    2    1    1    0.000008    0.000000
   -3    4    2    2    1   -0.000012    0.000000
   -3    4    2    1    2   -0.000012    0.000000
   -3    4    2    2    2    0.000004    0.000000
   -3    4    3    1    1    0.000000    0.000000
   -3    4    3    2    1   -0.000011    0.000000
   -3    4    3    1    2   -0.000011    0.000000
   -3    4    3    2    2   -0.000033    0.000000
   -3    5   -2    1    1    0.000009    0.000000
   -3    5   -2    2    1   -0.000001    0.000000
   -3    5   -2    1    2   -0.000001    0.000000
   -3    5   -2    2    2    0.000007    0.000000
   -3    5   -1    1    1   -0.000002    0.000000
   -3    5   -1    2    1   -0.000002    0.000000
   -3    5   -1    1    2   -0.000002    0.000000
   -3    5   -1    2    2   -0.000001    0.000000
   -3    5    0    1    1    0.000000    0.000000
   -3    5    0    2    1    0.000000    0.000000
   -3    5    0    1    2    0.000000    0.000000
   -3    5    0    2    2    0.000031    0.000000
   -3    5    1    1    1    0.000001    0.000000
   -3    5    1    2    1    0.000001    0.000000
   -3    5    1    1    2    0.000001    0.000000
   -3    5    1    2    2    0.000004    0.000000
   -3    5    2    1    1   -0.000024    0.000000
   -3    5    2    2    1   -0.000005    0.000000
   -3    5    2    1    2   -0.000005    0.000000
   -3    5    2    2    2    0.000072    0.000000
   -3    6   -1    1    1    0.000006    0.000000
   -3    6   -1    2    1    0.000000    0.000000
   -3    6   -1    1    2    0.000000    0.000000
   -3    6   -1    2    2   -0.000004    0.000000
   -3    6    0    1    1   -0.000012    0.000000
   -3    6    0    2    1    0.000000    0.000000
   -3    6    0    1    2    0.000000    0.000000
   -3    6    0    2    2    0.000000    0.000000
   -3    6    1    1    1    0.000005    0.000000
   -3    6    1    2    1   -0.000007    0.000000
   -3    6    1    1    2   -0.000007    0.000000
   -3    6    1    2    2   -0.000038    0.000000
   -3    7    0    1    1   -0.000002    0.000000
   -3    7    0    2    1    0.000000    0.000000
   -3    7    0    1    2    0.000000    0.000000
   -3    7    0    2    2   -0.000007    0.000000
   -2   -7   -5    1    1   -0.000013    0.000000
   -2   -7   -5    2    1   -0.000022    0.000000
   -2   -7   -5    1    2   -0.000022    0.000000
   -2   -7   -5    2    2   -0.000011    0.000000
   -2   -7   -4    1    1   -0.000007    0.000000
   -2   -7   -4    2    1    0.000000    0.000000
   -2   -7   -4    1    2    0.000000    0.000000
   -2   -7   -4    2    2   -0.000007    0.000000
   -2   -6   -6    1    1   -0.000006    0.000000
   -2   -6   -6    2    1    0.000009    0.000000
   -2   -6   -6    1    2    0.000009    0.000000
   -2   -6   -6    2    2    0.000005    0.000000
   -2   -6   -5    1    1    0.000010    0.000000
   -2   -6   -5    2    1    0.000003    0.000000
   -2   -6   -5    1    2    0.000003    0.000000
   -2   -6   -5    2    2    0.000002    0.000000
   -2   -6   -4    1    1    0.000008    0.000000
   -2   -6   -4    2    1    0.000002    0.000000
   -2   -6   -4    1    2    0.000002    0.000000
   -2   -6   -4    2    2   -0.000010    0.000000
   -2   -6   -3    1    1   -0.000001    0.000000
   -2   -6   -3    2    1   -0.000004    0.000000
   -2   -6   -3    1    2   -0.000004    0.000000
   -2   -6   -3    2    2    0.000004    0.000000
   -2   -5   -7    1    1   -0.000010    0.000000
   -2   -5   -7    2    1    0.000036    0.000000
   -2   -5   -7    1    2    0.000036    0.000000
   -2   -5   -7    2    2   -0.000086    0.000000
   -2   -5   -6    1    1    0.000016    0.000000
   -2   -5   -6    2    1   -0.000014    0.000000
   -2   -5   -6    1    2   -0.000014    0.000000
   -2   -5   -6    2    2   -0.000006    0.000000
   -2   -5   -5    1    1    0.000005    0.000000
   -2   -5   -5    2    1   -0.000019    0.000000
   -2   -5   -5    1    2   -0.000019    0.000000
   -2   -5   -5    2    2   -0.000006    0.000000
   -2   -5   -4    1    1    0.000004    0.000000
   -2   -5   -4    2    1    0.000009    0.000000
   -2   -5   -4    1    2    0.000009    0.000000
   -2   -5   -4    2    2    0.000001    0.000000
   -2   -5   -3    1    1   -0.000013    0.000000
   -2   -5   -3    2    1    0.000001    0.000000
   -2   -5   -3    1    2    0.000001    0.000000
   -2   -5   -3    2    2    0.000004    0.000000
   -2   -5   -2    1    1   -0.000003    0.000000
   -2   -5   -2    2    1    0.000000    0.000000
   -2   -5   -2    1    2    0.000000    0.000000
   -2   -5   -2    2    2   -0.000001    0.000000
   -2   -4   -8    1    1    0.000003    0.000000
   -2   -4   -8    2    1    0.000014    0.000000
   -2   -4   -8    1    2    0.000014    0.000000
   -2   -4   -8    2    2    0.000034    0.000000
   -2   -4   -7    1    1    0.000008    0.000000
   -2   -4   -7    2    1   -0.000012    0.000000
   -2   -4   -7    1    2   -0.000012    0.000000
   -2   -4   -7    2    2    0.000004    0.000000
   -2   -4   -6    1    1   -0.000048    0.000000
   -2   -4   -6    2    1    0.000043    0.000000
   -2   -4   -6    1    2    0.000043    0.000000
   -2   -4   -6    2    2    0.000073    0.000000
   -2   -4   -5    1    1    0.000049    0.000000
   -2   -4   -5    2    1   -0.000044    0.000000
   -2   -4   -5    1    2   -0.000044    0.000000
   -2   -4   -5    2    2   -0.000012    0.000000
   -2   -4   -4    1    1    0.000008    0.000000
   -2   -4   -4    2    1    0.000004    0.000000
   -2   -4   -4    1    2    0.000004    0.000000
   -2   -4   -4    2    2   -0.000012    0.000000
   -2   -4   -3    1    1    0.000012    0.000000
   -2   -4   -3    2    1   -0.000010    0.000000
   -2   -4   -3    1    2   -0.000010    0.000000
   -2   -4   -3    2    2    0.000006    0.000000
   -2   -4   -2    1    1   -0.000012    0.000000
   -2   -4   -2    2    1    0.000002    0.000000
   -2   -4   -2    1    2    0.000002    0.000000
   -2   -4   -2    2    2    0.000000    0.000000
   -2   -4   -1    1    1    0.000002    0.000000
   -2   -4   -1    2    1   -0.000002    0.000000
   -2   -4   -1    1    2   -0.000002    0.000000
   -2   -4   -1    2    2    0.000007    0.000000
   -2   -3   -9    1    1    0.000006    0.000000
   -2   -3   -9    2    1    0.000000    0.000000
   -2   -3   -9    1    2    0.000000    0.000000
   -2   -3   -9    2    2   -0.000004    0.000000
   -2   -3   -8    1    1   -0.000002    0.000000
   -2   -3   -8    2    1    0.000002    0.000000
   -2   -3   -8    1    2    0.000002    0.000000
   -2   -3   -8    2    2   -0.000001    0.000000
   -2   -3   -7    1    1   -0.000004    0.000000
   -2   -3   -7    2    1   -0.000003    0.000000
   -2   -3   -7    1    2   -0.000003    0.000000
   -2   -3   -7    2    2   -0.000024    0.000000
   -2   -3   -6    1    1    0.000014    0.000000
   -2   -3   -6    2    1   -0.000014    0.000000
   -2   -3   -6    1    2   -0.000014    0.000000
   -2   -3   -6    2    2    0.000007    0.000000
   -2   -3   -5    1    1   -0.000166    0.000000
   -2   -3   -5    2    1    0.000235    0.000000
   -2   -3   -5    1    2    0.000235    0.000000
   -2   -3   -5    2    2   -0.000581    0.000000
   -2   -3   -4    1    1    0.000142    0.000000
   -2   -3   -4    2    1   -0.000201    0.000000
   -2   -3   -4    1    2   -0.000201    0.000000
   -2   -3   -4    2    2    0.000073    0.000000
   -2   -3   -3    1    1    0.000137    0.000000
   -2   -3   -3    2    1   -0.000066    0.000000
   -2   -3   -3    1    2   -0.000066    0.000000
   -2   -3   -3    2    2    0.000028    0.000000
   -2   -3   -2    1    1   -0.000064    0.000000
   -2   -3   -2    2    1   -0.000013    0.000000
   -2   -3   -2    1    2   -0.000013    0.000000
   -2   -3   -2    2    2   -0.000007    0.000000
   -2   -3   -1    1    1   -0.000013    0.000000
   -2   -3   -1    2    1    0.000000    0.000000
   -2   -3   -1    1    2    0.000000    0.000000
   -2   -3   -1    2    2    0.000007    0.000000
   -2   -3    0    1    1   -0.000002    0.000000
   -2   -3    0    2    1    0.000000    0.000000
   -2   -3    0    1    2    0.000000    0.000000
   -2   -3    0    2    2   -0.000001    0.000000
   -2   -2   -8    1    1   -0.000004    0.000000
   -2   -2   -8    2    1    0.000000    0.000000
   -2   -2   -8    1    2    0.000000    0.000000
   -2   -2   -8    2    2    0.000007    0.000000
   -2   -2   -7    1    1    0.000003    0.000000
   -2   -2   -7    2    1    0.000000    0.000000
   -2   -2   -7    1    2    0.000000    0.000000
   -2   -2   -7    2    2    0.000006    0.000000
   -2   -2   -6    1    1    0.000004    0.000000
   -2   -2   -6    2    1    0.000000    0.000000
   -2   -2   -6    1    2    0.000000    0.000000
   -2   -2   -6    2    2    0.000047    0.000000
   -2   -2   -5    1    1    0.000034    0.000000
   -2   -2   -5    2    1    0.000000    0.000000
   -2   -2   -5    1    2    0.000000    0.000000
   -2   -2   -5    2    2    0.000102    0.000000
   -2   -2   -4    1    1   -0.000730    0.000000
   -2   -2   -4    2    1    0.000000    0.000000
   -2   -2   -4    1    2    0.000000    0.000000
   -2   -2   -4    2    2    0.004779    0.000000
   -2   -2   -3    1    1    0.001007    0.000000
   -2   -2   -3    2    1    0.000000    0.000000
   -2   -2   -3    1    2    0.000000    0.000000
   -2   -2   -3    2    2    0.000900    0.000000
   -2   -2   -2    1    1   -0.000505    0.000000
   -2   -2   -2    2    1    0.000000    0.000000
   -2   -2   -2    1    2    0.000000    0.000000
   -2   -2   -2    2    2   -0.000008    0.000000
   -2   -2   -1    1    1   -0.000209    0.000000
   -2   -2   -1    2    1    0.000000    0.000000
   -2   -2   -1    1    2    0.000000    0.000000
   -2   -2   -1    2    2   -0.000006    0.000000
   -2   -2    0    1    1   -0.000025    0.000000
   -2   -2    0    2    1    0.000000    0.000000
   -2   -2    0    1    2    0.000000    0.000000
   -2   -2    0    2    2   -0.000029    0.000000
   -2   -2    1    1    1   -0.000002    0.000000
   -2   -2    1    2    1    0.000000    0.000000
   -2   -2    1    1    2    0.000000    0.000000
   -2   -2    1    2    2   -0.000001    0.000000
   -2   -1   -7    1    1    0.000006    0.000000
   -2   -1   -7    2    1    0.000001    0.000000
   -2   -1   -7    1    2    0.000001    0.000000
   -2   -1   -7    2    2    0.000004    0.000000
   -2   -1   -6    1    1    0.000000    0.000000
   -2   -1   -6    2    1    0.000003    0.000000
   -2   -1   -6    1    2    0.000003    0.000000
   -2   -1   -6    2    2    0.000003    0.000000
   -2   -1   -5    1    1   -0.000004    0.000000
   -2   -1   -5    2    1    0.000007    0.000000
   -2   -1   -5    1    2    0.000007    0.000000
   -2   -1   -5    2    2   -0.000028    0.000000
   -2   -1   -4    1    1    0.000142    0.000000
   -2   -1   -4    2    1    0.000201    0.000000
   -2   -1   -4    1    2    0.000201    0.000000
   -2   -1   -4    2    2    0.000073    0.000000
   -2   -1   -3    1    1   -0.001949    0.000000
   -2   -1   -3    2    1   -0.003727    0.000000
   -2   -1   -3    1    2   -0.003727    0.000000
   -2   -1   -3    2    2   -0.004415    0.000000
   -2   -1   -2    1    1    0.001818    0.000000
   -2   -1   -2    2    1    0.003224    0.000000
   -2   -1   -2    1    2    0.003224    0.000000
   -2   -1   -2    2    2   -0.000121    0.000000
   -2   -1   -1    1    1   -0.002069    0.000000
   -2   -1   -1    2    1    0.000478    0.000000
   -2   -1   -1    1    2    0.000478    0.000000
   -2   -1   -1    2    2    0.000163    0.000000
   -2   -1    0    1    1   -0.000209    0.000000
   -2   -1    0    2    1    0.000000    0.000000
   -2   -1    0    1    2    0.000000    0.000000
   -2   -1    0    2    2   -0.000006    0.000000
   -2   -1    1    1    1   -0.000013    0.000000
   -2   -1    1    2    1    0.000000    0.000000
   -2   -1    1    1    2    0.000000    0.000000
   -2   -1    1    2    2    0.000007    0.000000
   -2   -1    2    1    1    0.000002    0.000000
   -2   -1    2    2    1   -0.000002    0.000000
   -2   -1    2    1    2   -0.000002    0.000000
   -2   -1    2    2    2    0.000007    0.000000
   -2    0   -6    1    1    0.000006    0.000000
   -2    0   -6    2    1   -0.000002    0.000000
   -2    0   -6    1    2   -0.000002    0.000000
   -2    0   -6    2    2    0.000007    0.000000
   -2    0   -5    1    1    0.000003    0.000000
   -2    0   -5    2    1   -0.000001    0.000000
   -2    0   -5    1    2   -0.000001    0.000000
   -2    0   -5    2    2    0.000001    0.000000
   -2    0   -4    1    1    0.000008    0.000000
   -2    0   -4    2    1   -0.000004    0.000000
   -2    0   -4    1    2   -0.000004    0.000000
   -2    0   -4    2    2   -0.000012    0.000000
   -2    0   -3    1    1    0.000145    0.000000
   -2    0   -3    2    1    0.000069    0.000000
   -2    0   -3    1    2    0.000069    0.000000
   -2    0   -3    2    2   -0.000352    0.000000
   -2    0   -2    1    1   -0.005758    0.000000
   -2    0   -2    2    1   -0.016110    0.000000
   -2    0   -2    1    2   -0.016110    0.000000
   -2    0   -2    2    2   -0.042529    0.000000
   -2    0   -1    1    1    0.001818    0.000000
   -2    0   -1    2    1    0.003224    0.000000
   -2    0   -1    1    2    0.003224    0.000000
   -2    0   -1    2    2   -0.000121    0.000000
   -2    0    0    1    1   -0.000505    0.000000
   -2    0    0    2    1    0.000000    0.000000
   -2    0    0    1    2    0.000000    0.000000
   -2    0    0    2    2   -0.000008    0.000000
   -2    0    1    1    1   -0.000064    0.000000
   -2    0    1    2    1   -0.000013    0.000000
   -2    0    1    1    2   -0.000013    0.000000
   -2    0    1    2    2   -0.000007    0.000000
   -2    0    2    1    1   -0.000012    0.000000
   -2    0    2    2    1    0.000002    0.000000
   -2    0    2    1    2    0.000002    0.000000
   -2    0    2    2    2    0.000000    0.000000
   -2    0    3    1    1   -0.000003    0.000000
   -2    0    3    2    1    0.000000    0.000000
   -2    0    3    1    2    0.000000    0.000000
   -2    0    3    2    2   -0.000001    0.000000
   -2    1   -5    1    1    0.000014    0.000000
   -2    1   -5    2    1    0.000000    0.000000
   -2    1   -5    1    2    0.000000    0.000000
   -2    1   -5    2    2   -0.000002    0.000000
   -2    1   -4    1    1    0.000004    0.000000
   -2    1   -4    2    1   -0.000009    0.000000
   -2    1   -4    1    2   -0.000009    0.000000
   -2    1   -4    2    2    0.000001    0.000000
   -2    1   -3    1    1   -0.000044    0.000000
   -2    1   -3    2    1   -0.000006    0.000000
   -2    1   -3    1    2   -0.000006    0.000000
   -2    1   -3    2    2    0.000000    0.000000
   -2    1   -2    1    1    0.000145    0.000000
   -2    1   -2    2    1    0.000069    0.000000
   -2    1   -2    1    2    0.000069    0.000000
   -2    1   -2    2    2   -0.000352    0.000000
   -2    1   -1    1    1   -0.001949    0.000000
   -2    1   -1    2    1   -0.003727    0.000000
   -2    1   -1    1    2   -0.003727    0.000000
   -2    1   -1    2    2   -0.004415    0.000000
   -2    1    0    1    1    0.001007    0.000000
   -2    1    0    2    1    0.000000    0.000000
   -2    1    0    1    2    0.000000    0.000000
   -2    1    0    2    2    0.000900    0.000000
   -2    1    1    1    1    0.000137    0.000000
   -2    1    1    2    1   -0.000066    0.000000
   -2    1    1    1    2   -0.000066    0.000000
   -2    1    1    2    2    0.000028    0.000000
   -2    1    2    1    1    0.000012    0.000000
   -2    1    2    2    1   -0.000010    0.000000
   -2    1    2    1    2   -0.000010    0.000000
   -2    1    2    2    2    0.000006    0.000000
   -2    1    3    1    1   -0.000013    0.000000
   -2    1    3    2    1    0.000001    0.000000
   -2    1    3    1    2    0.000001    0.000000
   -2    1    3    2    2    0.000004    0.000000
   -2    1    4    1    1   -0.000001    0.000000
   -2    1    4    2    1   -0.000004    0.000000
   -2    1    4    1    2   -0.000004    0.000000
   -2    1    4    2    2    0.000004    0.000000
   -2    2   -5    1    1   -0.000007    0.000000
   -2    2   -5    2    1    0.000000    0.000000
   -2    2   -5    1    2    0.000000    0.000000
   -2    2   -5    2    2   -0.000007    0.000000
   -2    2   -4    1    1    0.000008    0.000000
   -2    2   -4    2    1   -0.000002    0.000000
   -2    2   -4    1    2   -0.000002    0.000000
   -2    2   -4    2    2   -0.000010    0.000000
   -2    2   -3    1    1    0.000004    0.000000
   -2    2   -3    2    1   -0.000009    0.000000
   -2    2   -3    1    2   -0.000009    0.000000
   -2    2   -3    2    2    0.000001    0.000000
   -2    2   -2    1    1    0.000008    0.000000
   -2    2   -2    2    1   -0.000004    0.000000
   -2    2   -2    1    2   -0.000004    0.000000
   -2    2   -2    2    2   -0.000012    0.000000
   -2    2   -1    1    1    0.000142    0.000000
   -2    2   -1    2    1    0.000201    0.000000
   -2    2   -1    1    2    0.000201    0.000000
   -2    2   -1    2    2    0.000073    0.000000
   -2    2    0    1    1   -0.000730    0.000000
   -2    2    0    2    1    0.000000    0.000000
   -2    2    0    1    2    0.000000    0.000000
   -2    2    0    2    2    0.004779    0.000000
[...]
    5   -3    2    2    1    0.000005    0.000000
    5   -3    2    1    2    0.000005    0.000000
    5   -3    2    2    2    0.000072    0.000000
    5   -2   -1    1    1    0.000006    0.000000
    5   -2   -1    2    1   -0.000001    0.000000
    5   -2   -1    1    2   -0.000001    0.000000
    5   -2   -1    2    2    0.000004    0.000000
    5   -2    0    1    1    0.000003    0.000000
    5   -2    0    2    1    0.000000    0.000000
    5   -2    0    1    2    0.000000    0.000000
    5   -2    0    2    2    0.000006    0.000000
    5   -2    1    1    1   -0.000004    0.000000
    5   -2    1    2    1    0.000003    0.000000
    5   -2    1    1    2    0.000003    0.000000
    5   -2    1    2    2   -0.000024    0.000000
    5   -2    2    1    1    0.000008    0.000000
    5   -2    2    2    1    0.000012    0.000000
    5   -2    2    1    2    0.000012    0.000000
    5   -2    2    2    2    0.000004    0.000000
    5   -2    3    1    1   -0.000010    0.000000
    5   -2    3    2    1   -0.000036    0.000000
    5   -2    3    1    2   -0.000036    0.000000
    5   -2    3    2    2   -0.000086    0.000000
    5   -1    0    1    1   -0.000003    0.000000
    5   -1    0    2    1    0.000000    0.000000
    5   -1    0    1    2    0.000000    0.000000
    5   -1    0    2    2    0.000000    0.000000
    5   -1    1    1    1    0.000000    0.000000
    5   -1    1    2    1    0.000003    0.000000
    5   -1    1    1    2    0.000003    0.000000
    5   -1    1    2    2    0.000003    0.000000
    5   -1    2    1    1   -0.000001    0.000000
    5   -1    2    2    1   -0.000007    0.000000
    5   -1    2    1    2   -0.000007    0.000000
    5   -1    2    2    2    0.000023    0.000000
    5   -1    3    1    1    0.000016    0.000000
    5   -1    3    2    1    0.000014    0.000000
    5   -1    3    1    2    0.000014    0.000000
    5   -1    3    2    2   -0.000006    0.000000
    5   -1    4    1    1   -0.000051    0.000000
    5   -1    4    2    1   -0.000150    0.000000
    5   -1    4    1    2   -0.000150    0.000000
    5   -1    4    2    2   -0.000292    0.000000
    5    0    0    1    1    0.000000    0.000000
    5    0    0    2    1    0.000000    0.000000
    5    0    0    1    2    0.000000    0.000000
    5    0    0    2    2    0.000019    0.000000
    5    0    1    1    1   -0.000004    0.000000
    5    0    1    2    1   -0.000001    0.000000
    5    0    1    1    2   -0.000001    0.000000
    5    0    1    2    2    0.000003    0.000000
    5    0    2    1    1    0.000003    0.000000
    5    0    2    2    1   -0.000001    0.000000
    5    0    2    1    2   -0.000001    0.000000
    5    0    2    2    2    0.000001    0.000000
    5    0    3    1    1    0.000005    0.000000
    5    0    3    2    1    0.000019    0.000000
    5    0    3    1    2    0.000019    0.000000
    5    0    3    2    2   -0.000006    0.000000
    5    0    4    1    1    0.000014    0.000000
    5    0    4    2    1    0.000014    0.000000
    5    0    4    1    2    0.000014    0.000000
    5    0    4    2    2   -0.000027    0.000000
    5    0    5    1    1   -0.000142    0.000000
    5    0    5    2    1   -0.000397    0.000000
    5    0    5    1    2   -0.000397    0.000000
    5    0    5    2    2   -0.000893    0.000000
    5    1    1    1    1   -0.000002    0.000000
    5    1    1    2    1    0.000001    0.000000
    5    1    1    1    2    0.000001    0.000000
    5    1    1    2    2    0.000004    0.000000
    5    1    2    1    1   -0.000004    0.000000
    5    1    2    2    1   -0.000003    0.000000
    5    1    2    1    2   -0.000003    0.000000
    5    1    2    2    2   -0.000010    0.000000
    5    1    3    1    1    0.000004    0.000000
    5    1    3    2    1   -0.000009    0.000000
    5    1    3    1    2   -0.000009    0.000000
    5    1    3    2    2    0.000001    0.000000
    5    1    4    1    1   -0.000002    0.000000
    5    1    4    2    1   -0.000005    0.000000
    5    1    4    1    2   -0.000005    0.000000
    5    1    4    2    2    0.000004    0.000000
    5    1    5    1    1    0.000014    0.000000
    5    1    5    2    1    0.000014    0.000000
    5    1    5    1    2    0.000014    0.000000
    5    1    5    2    2   -0.000027    0.000000
    5    1    6    1    1   -0.000051    0.000000
    5    1    6    2    1   -0.000150    0.000000
    5    1    6    1    2   -0.000150    0.000000
    5    1    6    2    2   -0.000292    0.000000
    5    2    2    1    1   -0.000003    0.000000
    5    2    2    2    1    0.000000    0.000000
    5    2    2    1    2    0.000000    0.000000
    5    2    2    2    2   -0.000001    0.000000
    5    2    3    1    1   -0.000013    0.000000
    5    2    3    2    1   -0.000001    0.000000
    5    2    3    1    2   -0.000001    0.000000
    5    2    3    2    2    0.000004    0.000000
    5    2    4    1    1    0.000004    0.000000
    5    2    4    2    1   -0.000009    0.000000
    5    2    4    1    2   -0.000009    0.000000
    5    2    4    2    2    0.000001    0.000000
    5    2    5    1    1    0.000005    0.000000
    5    2    5    2    1    0.000019    0.000000
    5    2    5    1    2    0.000019    0.000000
    5    2    5    2    2   -0.000006    0.000000
    5    2    6    1    1    0.000016    0.000000
    5    2    6    2    1    0.000014    0.000000
    5    2    6    1    2    0.000014    0.000000
    5    2    6    2    2   -0.000006    0.000000
    5    2    7    1    1   -0.000010    0.000000
    5    2    7    2    1   -0.000036    0.000000
    5    2    7    1    2   -0.000036    0.000000
    5    2    7    2    2   -0.000086    0.000000
    5    3    3    1    1   -0.000003    0.000000
    5    3    3    2    1    0.000000    0.000000
    5    3    3    1    2    0.000000    0.000000
    5    3    3    2    2   -0.000001    0.000000
    5    3    4    1    1   -0.000004    0.000000
    5    3    4    2    1   -0.000003    0.000000
    5    3    4    1    2   -0.000003    0.000000
    5    3    4    2    2   -0.000010    0.000000
    5    3    5    1    1    0.000003    0.000000
    5    3    5    2    1   -0.000001    0.000000
    5    3    5    1    2   -0.000001    0.000000
    5    3    5    2    2    0.000001    0.000000
    5    3    6    1    1   -0.000001    0.000000
    5    3    6    2    1   -0.000007    0.000000
    5    3    6    1    2   -0.000007    0.000000
    5    3    6    2    2    0.000023    0.000000
    5    3    7    1    1    0.000008    0.000000
    5    3    7    2    1    0.000012    0.000000
    5    3    7    1    2    0.000012    0.000000
    5    3    7    2    2    0.000004    0.000000
    5    3    8    1    1   -0.000024    0.000000
    5    3    8    2    1    0.000005    0.000000
    5    3    8    1    2    0.000005    0.000000
    5    3    8    2    2    0.000072    0.000000
    5    4    4    1    1   -0.000002    0.000000
    5    4    4    2    1    0.000001    0.000000
    5    4    4    1    2    0.000001    0.000000
    5    4    4    2    2    0.000004    0.000000
    5    4    5    1    1   -0.000004    0.000000
    5    4    5    2    1   -0.000001    0.000000
    5    4    5    1    2   -0.000001    0.000000
    5    4    5    2    2    0.000003    0.000000
    5    4    6    1    1    0.000000    0.000000
    5    4    6    2    1    0.000003    0.000000
    5    4    6    1    2    0.000003    0.000000
    5    4    6    2    2    0.000003    0.000000
    5    4    7    1    1   -0.000004    0.000000
    5    4    7    2    1    0.000003    0.000000
    5    4    7    1    2    0.000003    0.000000
    5    4    7    2    2   -0.000024    0.000000
    5    4    8    1    1    0.000001    0.000000
    5    4    8    2    1   -0.000001    0.000000
    5    4    8    1    2   -0.000001    0.000000
    5    4    8    2    2    0.000004    0.000000
    5    4    9    1    1   -0.000001    0.000000
    5    4    9    2    1   -0.000005    0.000000
    5    4    9    1    2   -0.000005    0.000000
    5    4    9    2    2   -0.000075    0.000000
    5    5    5    1    1    0.000000    0.000000
    5    5    5    2    1    0.000000    0.000000
    5    5    5    1    2    0.000000    0.000000
    5    5    5    2    2    0.000019    0.000000
    5    5    6    1    1   -0.000003    0.000000
    5    5    6    2    1    0.000000    0.000000
    5    5    6    1    2    0.000000    0.000000
    5    5    6    2    2    0.000000    0.000000
    5    5    7    1    1    0.000003    0.000000
    5    5    7    2    1    0.000000    0.000000
    5    5    7    1    2    0.000000    0.000000
    5    5    7    2    2    0.000006    0.000000
    5    5    8    1    1    0.000000    0.000000
    5    5    8    2    1    0.000000    0.000000
    5    5    8    1    2    0.000000    0.000000
    5    5    8    2    2    0.000031    0.000000
    5    5    9    1    1   -0.000002    0.000000
    5    5    9    2    1    0.000000    0.000000
    5    5    9    1    2    0.000000    0.000000
    5    5    9    2    2   -0.000004    0.000000
    5    5   10    1    1   -0.000023    0.000000
    5    5   10    2    1    0.000000    0.000000
    5    5   10    1    2    0.000000    0.000000
    5    5   10    2    2    0.000082    0.000000
    5    6    7    1    1    0.000006    0.000000
    5    6    7    2    1   -0.000001    0.000000
    5    6    7    1    2   -0.000001    0.000000
    5    6    7    2    2    0.000004    0.000000
    5    6    8    1    1   -0.000002    0.000000
    5    6    8    2    1    0.000002    0.000000
    5    6    8    1    2    0.000002    0.000000
    5    6    8    2    2   -0.000001    0.000000
    5    6    9    1    1    0.000005    0.000000
    5    6    9    2    1   -0.000007    0.000000
    5    6    9    1    2   -0.000007    0.000000
    5    6    9    2    2   -0.000038    0.000000
    5    7    8    1    1    0.000009    0.000000
    5    7    8    2    1    0.000001    0.000000
    5    7    8    1    2    0.000001    0.000000
    5    7    8    2    2    0.000007    0.000000
    6   -4    0    1    1    0.000017    0.000000
    6   -4    0    2    1    0.000000    0.000000
    6   -4    0    1    2    0.000000    0.000000
    6   -4    0    2    2    0.000050    0.000000
    6   -3   -1    1    1    0.000006    0.000000
    6   -3   -1    2    1    0.000000    0.000000
    6   -3   -1    1    2    0.000000    0.000000
    6   -3   -1    2    2   -0.000004    0.000000
    6   -3    0    1    1   -0.000012    0.000000
    6   -3    0    2    1    0.000000    0.000000
    6   -3    0    1    2    0.000000    0.000000
    6   -3    0    2    2    0.000000    0.000000
    6   -3    1    1    1    0.000005    0.000000
    6   -3    1    2    1    0.000007    0.000000
    6   -3    1    1    2    0.000007    0.000000
    6   -3    1    2    2   -0.000038    0.000000
    6   -2    0    1    1   -0.000004    0.000000
    6   -2    0    2    1    0.000000    0.000000
    6   -2    0    1    2    0.000000    0.000000
    6   -2    0    2    2    0.000007    0.000000
    6   -2    1    1    1   -0.000002    0.000000
    6   -2    1    2    1   -0.000002    0.000000
    6   -2    1    1    2   -0.000002    0.000000
    6   -2    1    2    2   -0.000001    0.000000
    6   -2    2    1    1    0.000003    0.000000
    6   -2    2    2    1   -0.000014    0.000000
    6   -2    2    1    2   -0.000014    0.000000
    6   -2    2    2    2    0.000034    0.000000
    6   -1    1    1    1    0.000006    0.000000
    6   -1    1    2    1    0.000001    0.000000
    6   -1    1    1    2    0.000001    0.000000
    6   -1    1    2    2    0.000004    0.000000
    6   -1    2    1    1   -0.000001    0.000000
    6   -1    2    2    1   -0.000004    0.000000
    6   -1    2    1    2   -0.000004    0.000000
    6   -1    2    2    2   -0.000004    0.000000
    6   -1    3    1    1    0.000000    0.000000
    6   -1    3    2    1    0.000011    0.000000
    6   -1    3    1    2    0.000011    0.000000
    6   -1    3    2    2   -0.000033    0.000000
    6    0    2    1    1    0.000006    0.000000
    6    0    2    2    1   -0.000002    0.000000
    6    0    2    1    2   -0.000002    0.000000
    6    0    2    2    2    0.000007    0.000000
    6    0    3    1    1    0.000004    0.000000
    6    0    3    2    1    0.000001    0.000000
    6    0    3    1    2    0.000001    0.000000
    6    0    3    2    2    0.000004    0.000000
    6    0    4    1    1   -0.000006    0.000000
    6    0    4    2    1   -0.000009    0.000000
    6    0    4    1    2   -0.000009    0.000000
    6    0    4    2    2    0.000005    0.000000
    6    1    2    1    1    0.000004    0.000000
    6    1    2    2    1    0.000000    0.000000
    6    1    2    1    2    0.000000    0.000000
    6    1    2    2    2   -0.000001    0.000000
    6    1    3    1    1    0.000014    0.000000
    6    1    3    2    1    0.000000    0.000000
    6    1    3    1    2    0.000000    0.000000
    6    1    3    2    2   -0.000002    0.000000
    6    1    4    1    1    0.000010    0.000000
    6    1    4    2    1   -0.000003    0.000000
    6    1    4    1    2   -0.000003    0.000000
    6    1    4    2    2    0.000002    0.000000
    6    1    5    1    1   -0.000006    0.000000
    6    1    5    2    1    0.000013    0.000000
    6    1    5    1    2    0.000013    0.000000
    6    1    5    2    2    0.000010    0.000000
    6    2    3    1    1   -0.000001    0.000000
    6    2    3    2    1    0.000004    0.000000
    6    2    3    1    2    0.000004    0.000000
    6    2    3    2    2    0.000004    0.000000
    6    2    4    1    1    0.000008    0.000000
    6    2    4    2    1   -0.000002    0.000000
    6    2    4    1    2   -0.000002    0.000000
    6    2    4    2    2   -0.000010    0.000000
    6    2    5    1    1    0.000010    0.000000
    6    2    5    2    1   -0.000003    0.000000
    6    2    5    1    2   -0.000003    0.000000
    6    2    5    2    2    0.000002    0.000000
    6    2    6    1    1   -0.000006    0.000000
    6    2    6    2    1   -0.000009    0.000000
    6    2    6    1    2   -0.000009    0.000000
    6    2    6    2    2    0.000005    0.000000
    6    3    4    1    1   -0.000001    0.000000
    6    3    4    2    1    0.000004    0.000000
    6    3    4    1    2    0.000004    0.000000
    6    3    4    2    2    0.000004    0.000000
    6    3    5    1    1    0.000014    0.000000
    6    3    5    2    1    0.000000    0.000000
    6    3    5    1    2    0.000000    0.000000
    6    3    5    2    2   -0.000002    0.000000
    6    3    6    1    1    0.000004    0.000000
    6    3    6    2    1    0.000001    0.000000
    6    3    6    1    2    0.000001    0.000000
    6    3    6    2    2    0.000004    0.000000
    6    3    7    1    1    0.000000    0.000000
    6    3    7    2    1    0.000011    0.000000
    6    3    7    1    2    0.000011    0.000000
    6    3    7    2    2   -0.000033    0.000000
    6    4    5    1    1    0.000004    0.000000
    6    4    5    2    1    0.000000    0.000000
    6    4    5    1    2    0.000000    0.000000
    6    4    5    2    2   -0.000001    0.000000
    6    4    6    1    1    0.000006    0.000000
    6    4    6    2    1   -0.000002    0.000000
    6    4    6    1    2   -0.000002    0.000000
    6    4    6    2    2    0.000007    0.000000
    6    4    7    1    1   -0.000001    0.000000
    6    4    7    2    1   -0.000004    0.000000
    6    4    7    1    2   -0.000004    0.000000
    6    4    7    2    2   -0.000004    0.000000
    6    4    8    1    1    0.000003    0.000000
    6    4    8    2    1   -0.000014    0.000000
    6    4    8    1    2   -0.000014    0.000000
    6    4    8    2    2    0.000034    0.000000
    6    5    7    1    1    0.000006    0.000000
    6    5    7    2    1    0.000001    0.000000
    6    5    7    1    2    0.000001    0.000000
    6    5    7    2    2    0.000004    0.000000
    6    5    8    1    1   -0.000002    0.000000
    6    5    8    2    1   -0.000002    0.000000
    6    5    8    1    2   -0.000002    0.000000
    6    5    8    2    2   -0.000001    0.000000
    6    5    9    1    1    0.000005    0.000000
    6    5    9    2    1    0.000007    0.000000
    6    5    9    1    2    0.000007    0.000000
    6    5    9    2    2   -0.000038    0.000000
    6    6    8    1    1   -0.000004    0.000000
    6    6    8    2    1    0.000000    0.000000
    6    6    8    1    2    0.000000    0.000000
    6    6    8    2    2    0.000007    0.000000
    6    6    9    1    1   -0.000012    0.000000
    6    6    9    2    1    0.000000    0.000000
    6    6    9    1    2    0.000000    0.000000
    6    6    9    2    2    0.000000    0.000000
    6    6   10    1    1    0.000017    0.000000
    6    6   10    2    1    0.000000    0.000000
    6    6   10    1    2    0.000000    0.000000
    6    6   10    2    2    0.000050    0.000000
    6    7    9    1    1    0.000006    0.000000
    6    7    9    2    1    0.000000    0.000000
    6    7    9    1    2    0.000000    0.000000
    6    7    9    2    2   -0.000004    0.000000
    7   -3    0    1    1   -0.000002    0.000000
    7   -3    0    2    1    0.000000    0.000000
    7   -3    0    1    2    0.000000    0.000000
    7   -3    0    2    2   -0.000007    0.000000
    7   -2    1    1    1    0.000006    0.000000
    7   -2    1    2    1    0.000000    0.000000
    7   -2    1    1    2    0.000000    0.000000
    7   -2    1    2    2   -0.000004    0.000000
    7   -1    2    1    1    0.000009    0.000000
    7   -1    2    2    1   -0.000001    0.000000
    7   -1    2    1    2   -0.000001    0.000000
    7   -1    2    2    2    0.000007    0.000000
    7    0    3    1    1    0.000003    0.000000
    7    0    3    2    1    0.000006    0.000000
    7    0    3    1    2    0.000006    0.000000
    7    0    3    2    2   -0.000009    0.000000
    7    1    4    1    1    0.000009    0.000000
    7    1    4    2    1   -0.000005    0.000000
    7    1    4    1    2   -0.000005    0.000000
    7    1    4    2    2    0.000010    0.000000
    7    2    4    1    1   -0.000007    0.000000
    7    2    4    2    1    0.000000    0.000000
    7    2    4    1    2    0.000000    0.000000
    7    2    4    2    2   -0.000007    0.000000
    7    2    5    1    1   -0.000013    0.000000
    7    2    5    2    1    0.000022    0.000000
    7    2    5    1    2    0.000022    0.000000
    7    2    5    2    2   -0.000011    0.000000
    7    3    5    1    1   -0.000007    0.000000
    7    3    5    2    1    0.000000    0.000000
    7    3    5    1    2    0.000000    0.000000
    7    3    5    2    2   -0.000007    0.000000
    7    3    6    1    1    0.000009    0.000000
    7    3    6    2    1   -0.000005    0.000000
    7    3    6    1    2   -0.000005    0.000000
    7    3    6    2    2    0.000010    0.000000
    7    4    7    1    1    0.000003    0.000000
    7    4    7    2    1    0.000006    0.000000
    7    4    7    1    2    0.000006    0.000000
    7    4    7    2    2   -0.000009    0.000000
    7    5    8    1    1    0.000009    0.000000
    7    5    8    2    1   -0.000001    0.000000
    7    5    8    1    2   -0.000001    0.000000
    7    5    8    2    2    0.000007    0.000000
    7    6    9    1    1    0.000006    0.000000
    7    6    9    2    1    0.000000    0.000000
    7    6    9    1    2    0.000000    0.000000
    7    6    9    2    2   -0.000004    0.000000
    7    7   10    1    1   -0.000002    0.000000
    7    7   10    2    1    0.000000    0.000000
    7    7   10    1    2    0.000000    0.000000
    7    7   10    2    2   -0.000007    0.000000
